       N       E                     dE             d eps       ncg     rms          rms(c)
DAV:   1     0.352610141388E+04    0.35261E+04   -0.14365E+05 16408   0.117E+03
DAV:   2     0.187591130656E+03   -0.33385E+04   -0.30672E+04 17056   0.446E+02
DAV:   3    -0.244385502606E+03   -0.43198E+03   -0.40170E+03 22256   0.130E+02
DAV:   4    -0.277418921788E+03   -0.33033E+02   -0.29832E+02 23736   0.369E+01
DAV:   5    -0.278496392453E+03   -0.10775E+01   -0.10543E+01 22520   0.576E+00    0.278E+01
RMM:   6    -0.270168589567E+03    0.83278E+01   -0.14205E+01 18348   0.704E+00    0.228E+01
RMM:   7    -0.282629925672E+03   -0.12461E+02   -0.18828E+01 18252   0.754E+00    0.292E+01
RMM:   8    -0.272191284375E+03    0.10439E+02   -0.14327E+01 18131   0.675E+00    0.244E+01
RMM:   9    -0.255850212360E+03    0.16341E+02   -0.16274E+01 16525   0.102E+01    0.132E+01
RMM:  10    -0.254260763933E+03    0.15894E+01   -0.35150E+00 20003   0.331E+00    0.838E+00
RMM:  11    -0.253587974098E+03    0.67279E+00   -0.14801E+00 17131   0.260E+00    0.396E+00
RMM:  12    -0.253483577124E+03    0.10440E+00   -0.80893E-01 16923   0.203E+00    0.269E+00
RMM:  13    -0.253463027319E+03    0.20550E-01   -0.24777E-01 19301   0.986E-01    0.200E+00
RMM:  14    -0.253450642869E+03    0.12384E-01   -0.82435E-02 16556   0.568E-01    0.130E+00
RMM:  15    -0.253438385377E+03    0.12257E-01   -0.71198E-02 16391   0.622E-01    0.834E-01
RMM:  16    -0.253434819647E+03    0.35657E-02   -0.25112E-02 18067   0.333E-01    0.640E-01
RMM:  17    -0.253438435063E+03   -0.36154E-02   -0.13570E-02 16895   0.213E-01    0.403E-01
RMM:  18    -0.253441417041E+03   -0.29820E-02   -0.99300E-03 16788   0.188E-01    0.329E-01
RMM:  19    -0.253440329893E+03    0.10871E-02   -0.41483E-03 16390   0.142E-01    0.174E-01
RMM:  20    -0.253439988407E+03    0.34149E-03   -0.21445E-03 16550   0.988E-02    0.145E-01
RMM:  21    -0.253439419408E+03    0.56900E-03   -0.15370E-03 16514   0.815E-02    0.938E-02
RMM:  22    -0.253439061872E+03    0.35754E-03   -0.64815E-04 17009   0.542E-02    0.507E-02
RMM:  23    -0.253438832956E+03    0.22892E-03   -0.39337E-04 16675   0.395E-02    0.397E-02
RMM:  24    -0.253438793729E+03    0.39227E-04   -0.37792E-04 16381   0.405E-02    0.247E-02
RMM:  25    -0.253438885441E+03   -0.91713E-04   -0.24346E-04 16519   0.299E-02    0.166E-02
RMM:  26    -0.253438986773E+03   -0.10133E-03   -0.16079E-04 16344   0.235E-02    0.114E-02
RMM:  27    -0.253439084193E+03   -0.97420E-04   -0.13825E-04 16321   0.227E-02    0.931E-03
RMM:  28    -0.253439122524E+03   -0.38331E-04   -0.36455E-05 16666   0.973E-03    0.740E-03
RMM:  29    -0.253439153696E+03   -0.31172E-04   -0.23690E-05 15575   0.911E-03    0.363E-03
RMM:  30    -0.253439168821E+03   -0.15125E-04   -0.14390E-05 14801   0.689E-03    0.282E-03
RMM:  31    -0.253439171058E+03   -0.22372E-05   -0.34005E-06 10816   0.311E-03    0.218E-03
RMM:  32    -0.253439170976E+03    0.82335E-07   -0.35159E-06 10939   0.363E-03
   1 F= -.25343917E+03 E0= -.25342950E+03  d E =-.253439E+03
       N       E                     dE             d eps       ncg     rms          rms(c)
DAV:   1    -0.253441645860E+03   -0.24748E-02   -0.15275E-01 17056   0.699E-01    0.383E-02
RMM:   2    -0.253441838827E+03   -0.19297E-03   -0.20091E-03 16379   0.111E-01    0.337E-02
RMM:   3    -0.253441841609E+03   -0.27822E-05   -0.18005E-04 19129   0.368E-02    0.244E-02
RMM:   4    -0.253441841447E+03    0.16236E-06   -0.46620E-05 16869   0.130E-02    0.282E-02
RMM:   5    -0.253441824848E+03    0.16599E-04   -0.50757E-05 16409   0.140E-02    0.713E-03
RMM:   6    -0.253441826904E+03   -0.20566E-05   -0.49801E-06 12087   0.553E-03    0.554E-03
RMM:   7    -0.253441825266E+03    0.16380E-05   -0.32886E-06  9970   0.476E-03    0.338E-03
RMM:   8    -0.253441824969E+03    0.29717E-06   -0.11452E-06  9002   0.265E-03
   2 F= -.25344182E+03 E0= -.25343212E+03  d E =-.265399E-02
       N       E                     dE             d eps       ncg     rms          rms(c)
DAV:   1    -0.253445163817E+03   -0.33386E-02   -0.13745E+00 16832   0.210E+00    0.114E-01
RMM:   2    -0.253446654586E+03   -0.14908E-02   -0.14550E-02 16376   0.324E-01    0.246E-02
RMM:   3    -0.253446816778E+03   -0.16219E-03   -0.16408E-03 22015   0.941E-02    0.874E-03
RMM:   4    -0.253446822810E+03   -0.60324E-05   -0.76975E-05 15724   0.111E-02    0.503E-03
RMM:   5    -0.253446823678E+03   -0.86770E-06   -0.66156E-06 10997   0.553E-03
   3 F= -.25344682E+03 E0= -.25343702E+03  d E =-.765270E-02
       N       E                     dE             d eps       ncg     rms          rms(c)
DAV:   1    -0.253436684264E+03    0.10139E-01   -0.54986E+00 16480   0.419E+00    0.226E-01
RMM:   2    -0.253442803224E+03   -0.61190E-02   -0.59285E-02 16375   0.674E-01    0.526E-02
RMM:   3    -0.253443526161E+03   -0.72294E-03   -0.73110E-03 23101   0.184E-01    0.105E-02
RMM:   4    -0.253443529612E+03   -0.34509E-05   -0.10650E-04 19496   0.150E-02    0.887E-03
RMM:   5    -0.253443530609E+03   -0.99707E-06   -0.13420E-05 14883   0.678E-03    0.405E-03
RMM:   6    -0.253443530913E+03   -0.30432E-06   -0.39878E-06  9729   0.405E-03
   4 F= -.25344353E+03 E0= -.25343354E+03  d E =-.435994E-02
       N       E                     dE             d eps       ncg     rms          rms(c)
DAV:   1    -0.253444601342E+03   -0.10707E-02   -0.25840E+00 16464   0.287E+00    0.160E-01
RMM:   2    -0.253447466068E+03   -0.28647E-02   -0.25498E-02 16375   0.430E-01    0.644E-02
RMM:   3    -0.253447716198E+03   -0.25013E-03   -0.30276E-03 23005   0.124E-01    0.276E-02
RMM:   4    -0.253447698715E+03    0.17482E-04   -0.67699E-05 19111   0.144E-02    0.178E-02
RMM:   5    -0.253447693277E+03    0.54383E-05   -0.14979E-05 16528   0.882E-03    0.107E-02
RMM:   6    -0.253447691829E+03    0.14482E-05   -0.53712E-06 12320   0.557E-03    0.625E-03
RMM:   7    -0.253447691298E+03    0.53051E-06   -0.24214E-06  9259   0.366E-03
   5 F= -.25344769E+03 E0= -.25343783E+03  d E =-.852032E-02
       N       E                     dE             d eps       ncg     rms          rms(c)
DAV:   1    -0.253448973972E+03   -0.12821E-02   -0.42710E-01 16752   0.122E+00    0.766E-02
RMM:   2    -0.253449591187E+03   -0.61721E-03   -0.67208E-03 16377   0.193E-01    0.684E-02
RMM:   3    -0.253449617751E+03   -0.26565E-04   -0.50779E-04 18173   0.644E-02    0.698E-02
RMM:   4    -0.253449678685E+03   -0.60934E-04   -0.59723E-04 17317   0.517E-02    0.588E-02
RMM:   5    -0.253449870155E+03   -0.19147E-03   -0.43284E-04 16404   0.515E-02    0.935E-02
RMM:   6    -0.253449755709E+03    0.11445E-03   -0.33295E-05 16395   0.129E-02    0.816E-02
RMM:   7    -0.253449627789E+03    0.12792E-03   -0.94765E-05 16375   0.197E-02    0.560E-02
RMM:   8    -0.253449569159E+03    0.58630E-04   -0.85546E-05 16373   0.222E-02    0.345E-02
RMM:   9    -0.253449549987E+03    0.19173E-04   -0.52298E-05 21016   0.142E-02    0.204E-02
RMM:  10    -0.253449542165E+03    0.78220E-05   -0.79804E-06 15506   0.625E-03    0.141E-02
RMM:  11    -0.253449537150E+03    0.50149E-05   -0.77403E-06 15845   0.636E-03    0.777E-03
RMM:  12    -0.253449535442E+03    0.17078E-05   -0.30248E-06  9686   0.430E-03    0.451E-03
RMM:  13    -0.253449534863E+03    0.57949E-06   -0.17777E-06  9007   0.351E-03
   6 F= -.25344953E+03 E0= -.25343963E+03  d E =-.184356E-02
       N       E                     dE             d eps       ncg     rms          rms(c)
DAV:   1    -0.253449541206E+03   -0.57636E-05   -0.64287E-03 17040   0.150E-01    0.961E-03
RMM:   2    -0.253449548440E+03   -0.72340E-05   -0.83612E-05 16381   0.229E-02    0.170E-03
RMM:   3    -0.253449548572E+03   -0.13222E-06   -0.64566E-06 14360   0.706E-03
   7 F= -.25344955E+03 E0= -.25343964E+03  d E =-.185727E-02
       N       E                     dE             d eps       ncg     rms          rms(c)
DAV:   1    -0.253450090315E+03   -0.54188E-03   -0.68975E-02 16624   0.492E-01    0.308E-02
RMM:   2    -0.253450187377E+03   -0.97062E-04   -0.98894E-04 16380   0.777E-02    0.265E-02
RMM:   3    -0.253450194407E+03   -0.70301E-05   -0.10174E-04 19525   0.263E-02    0.266E-02
RMM:   4    -0.253450191159E+03    0.32479E-05   -0.47261E-05 18253   0.137E-02    0.263E-02
RMM:   5    -0.253450178481E+03    0.12678E-04   -0.50345E-05 16363   0.161E-02    0.998E-03
RMM:   6    -0.253450179583E+03   -0.11023E-05   -0.20547E-05 16199   0.134E-02    0.840E-03
RMM:   7    -0.253450178380E+03    0.12034E-05   -0.16501E-06  9234   0.267E-03    0.609E-03
RMM:   8    -0.253450177248E+03    0.11323E-05   -0.34822E-06 10127   0.504E-03    0.256E-03
RMM:   9    -0.253450177040E+03    0.20720E-06   -0.13175E-06  8969   0.361E-03
   8 F= -.25345018E+03 E0= -.25344027E+03  d E =-.628468E-03
