 vasp.5.4.4.18Apr17-6-g9f103f2a35 (build Jul 24 2019 14:41:59) complex          
  
 executed on IFC18.0.1.163_CrayMP date 2021.01.10  08:48:59
 running on   64 total cores
 distrk:  each k-point on   64 cores,    1 groups
 distr:  one band on NCORES_PER_BAND=   8 cores,    8 groups


--------------------------------------------------------------------------------------------------------


 INCAR:
 POTCAR:   PAW_PBE Pt 05Jan2001                   
 POTCAR:   PAW_PBE C 08Apr2002                    
 POTCAR:   PAW_PBE H 15Jun2001                    
 POTCAR:   PAW_PBE C 08Apr2002                    
 POTCAR:   PAW_PBE H 15Jun2001                    

 ----------------------------------------------------------------------------- 
|                                                                             |
|  ADVICE TO THIS USER RUNNING 'VASP/VAMP'   (HEAR YOUR MASTER'S VOICE ...):  |
|                                                                             |
|      You have switched on vdW-DFT.                                          |
|      This routine was written and supplied by Jiri Klimes.                  |
|      We recommed that you carefully read and cite the following             |
|      publication                                                            |
|      J. Klimes, D.R. Bowler, A. Michelides                                  |
|        J. Phys.: Cond Matt. 22 022201 (2010)                                |
|      J. Klimes, D.R. Bowler, A. Michelides                                  |
|        Phys. Rev. B. 83, 195131 (2011)                                      |
|      and references therein.                                                |
|                                                                             |
 ----------------------------------------------------------------------------- 

 POTCAR:   PAW_PBE Pt 05Jan2001                   
   VRHFIN =Pt: s1d9                                                             
   LEXCH  = PE                                                                  
   EATOM  =   729.1171 eV,   53.5886 Ry                                         
                                                                                
   TITEL  = PAW_PBE Pt 05Jan2001                                                
   LULTRA =        F    use ultrasoft PP ?                                      
   IUNSCR =        1    unscreen: 0-lin 1-nonlin 2-no                           
   RPACOR =    2.330    partial core radius                                     
   POMASS =  195.080; ZVAL   =   10.000    mass and valenz                      
   RCORE  =    2.500    outmost cutoff radius                                   
   RWIGS  =    2.750; RWIGS  =    1.455    wigner-seitz radius (au A)           
   ENMAX  =  230.283; ENMIN  =  172.712 eV                                      
   RCLOC  =    1.896    cutoff for local pot                                    
   LCOR   =        T    correct aug charges                                     
   LPAW   =        T    paw PP                                                  
   EAUG   =  358.966                                                            
   DEXC   =    -.039                                                            
   RMAX   =    3.038    core radius for proj-oper                               
   RAUG   =    1.300    factor for augmentation sphere                          
   RDEP   =    2.590    radius for radial grids                                 
   QCUT   =   -4.114; QGAM   =    8.228    optimization parameters              
                                                                                
   Description                                                                  
     l     E      TYP  RCUT    TYP  RCUT                                        
     2   .000     23  2.500                                                     
     2   .000     23  2.500                                                     
     0   .000     23  2.500                                                     
     0   .000     23  2.500                                                     
     1  -.200     23  2.500                                                     
     1  1.500     23  2.500                                                     
     3   .000      7   .000                                                     
  local pseudopotential read in
  partial core-charges read in
  atomic valenz-charges read in
  non local Contribution for L=           2  read in
    real space projection operators read in
  non local Contribution for L=           2  read in
    real space projection operators read in
  non local Contribution for L=           0  read in
    real space projection operators read in
  non local Contribution for L=           0  read in
    real space projection operators read in
  non local Contribution for L=           1  read in
    real space projection operators read in
  non local Contribution for L=           1  read in
    real space projection operators read in
    PAW grid and wavefunctions read in
 
   number of l-projection  operators is LMAX  =           6
   number of lm-projection operators is LMMAX =          18
 
 POTCAR:   PAW_PBE C 08Apr2002                    
   VRHFIN =C: s2p2                                                              
   LEXCH  = PE                                                                  
   EATOM  =   147.1560 eV,   10.8157 Ry                                         
                                                                                
   TITEL  = PAW_PBE C 08Apr2002                                                 
   LULTRA =        F    use ultrasoft PP ?                                      
   IUNSCR =        0    unscreen: 0-lin 1-nonlin 2-no                           
   RPACOR =     .000    partial core radius                                     
   POMASS =   12.011; ZVAL   =    4.000    mass and valenz                      
   RCORE  =    1.500    outmost cutoff radius                                   
   RWIGS  =    1.630; RWIGS  =     .863    wigner-seitz radius (au A)           
   ENMAX  =  400.000; ENMIN  =  300.000 eV                                      
   ICORE  =        2    local potential                                         
   LCOR   =        T    correct aug charges                                     
   LPAW   =        T    paw PP                                                  
   EAUG   =  644.873                                                            
   DEXC   =     .000                                                            
   RMAX   =    2.266    core radius for proj-oper                               
   RAUG   =    1.300    factor for augmentation sphere                          
   RDEP   =    1.501    radius for radial grids                                 
   RDEPT  =    1.300    core radius for aug-charge                              
   QCUT   =   -5.516; QGAM   =   11.032    optimization parameters              
                                                                                
   Description                                                                  
     l     E      TYP  RCUT    TYP  RCUT                                        
     0   .000     23  1.200                                                     
     0   .000     23  1.200                                                     
     1   .000     23  1.500                                                     
     1  2.500     23  1.500                                                     
     2   .000      7  1.500                                                     
  local pseudopotential read in
  atomic valenz-charges read in
  non local Contribution for L=           0  read in
    real space projection operators read in
  non local Contribution for L=           0  read in
    real space projection operators read in
  non local Contribution for L=           1  read in
    real space projection operators read in
  non local Contribution for L=           1  read in
    real space projection operators read in
    PAW grid and wavefunctions read in
 
   number of l-projection  operators is LMAX  =           4
   number of lm-projection operators is LMMAX =           8
 
 POTCAR:   PAW_PBE H 15Jun2001                    
   VRHFIN =H: ultrasoft test                                                    
   LEXCH  = PE                                                                  
   EATOM  =    12.4884 eV,     .9179 Ry                                         
                                                                                
   TITEL  = PAW_PBE H 15Jun2001                                                 
   LULTRA =        F    use ultrasoft PP ?                                      
   IUNSCR =        0    unscreen: 0-lin 1-nonlin 2-no                           
   RPACOR =     .000    partial core radius                                     
   POMASS =    1.000; ZVAL   =    1.000    mass and valenz                      
   RCORE  =    1.100    outmost cutoff radius                                   
   RWIGS  =     .700; RWIGS  =     .370    wigner-seitz radius (au A)           
   ENMAX  =  250.000; ENMIN  =  200.000 eV                                      
   RCLOC  =     .701    cutoff for local pot                                    
   LCOR   =        T    correct aug charges                                     
   LPAW   =        T    paw PP                                                  
   EAUG   =  400.000                                                            
   RMAX   =    2.174    core radius for proj-oper                               
   RAUG   =    1.200    factor for augmentation sphere                          
   RDEP   =    1.112    radius for radial grids                                 
   QCUT   =   -5.749; QGAM   =   11.498    optimization parameters              
                                                                                
   Description                                                                  
     l     E      TYP  RCUT    TYP  RCUT                                        
     0   .000     23  1.100                                                     
     0   .500     23  1.100                                                     
     1  -.300     23  1.100                                                     
  local pseudopotential read in
  atomic valenz-charges read in
  non local Contribution for L=           0  read in
    real space projection operators read in
  non local Contribution for L=           0  read in
    real space projection operators read in
  non local Contribution for L=           1  read in
    real space projection operators read in
    PAW grid and wavefunctions read in
 
   number of l-projection  operators is LMAX  =           3
   number of lm-projection operators is LMMAX =           5
 
 POTCAR:   PAW_PBE C 08Apr2002                    
   VRHFIN =C: s2p2                                                              
   LEXCH  = PE                                                                  
   EATOM  =   147.1560 eV,   10.8157 Ry                                         
                                                                                
   TITEL  = PAW_PBE C 08Apr2002                                                 
   LULTRA =        F    use ultrasoft PP ?                                      
   IUNSCR =        0    unscreen: 0-lin 1-nonlin 2-no                           
   RPACOR =     .000    partial core radius                                     
   POMASS =   12.011; ZVAL   =    4.000    mass and valenz                      
   RCORE  =    1.500    outmost cutoff radius                                   
   RWIGS  =    1.630; RWIGS  =     .863    wigner-seitz radius (au A)           
   ENMAX  =  400.000; ENMIN  =  300.000 eV                                      
   ICORE  =        2    local potential                                         
   LCOR   =        T    correct aug charges                                     
   LPAW   =        T    paw PP                                                  
   EAUG   =  644.873                                                            
   DEXC   =     .000                                                            
   RMAX   =    2.266    core radius for proj-oper                               
   RAUG   =    1.300    factor for augmentation sphere                          
   RDEP   =    1.501    radius for radial grids                                 
   RDEPT  =    1.300    core radius for aug-charge                              
   QCUT   =   -5.516; QGAM   =   11.032    optimization parameters              
                                                                                
   Description                                                                  
     l     E      TYP  RCUT    TYP  RCUT                                        
     0   .000     23  1.200                                                     
     0   .000     23  1.200                                                     
     1   .000     23  1.500                                                     
     1  2.500     23  1.500                                                     
     2   .000      7  1.500                                                     
  local pseudopotential read in
  atomic valenz-charges read in
  non local Contribution for L=           0  read in
    real space projection operators read in
  non local Contribution for L=           0  read in
    real space projection operators read in
  non local Contribution for L=           1  read in
    real space projection operators read in
  non local Contribution for L=           1  read in
    real space projection operators read in
    PAW grid and wavefunctions read in
 
   number of l-projection  operators is LMAX  =           4
   number of lm-projection operators is LMMAX =           8
 
 POTCAR:   PAW_PBE H 15Jun2001                    
   VRHFIN =H: ultrasoft test                                                    
   LEXCH  = PE                                                                  
   EATOM  =    12.4884 eV,     .9179 Ry                                         
                                                                                
   TITEL  = PAW_PBE H 15Jun2001                                                 
   LULTRA =        F    use ultrasoft PP ?                                      
   IUNSCR =        0    unscreen: 0-lin 1-nonlin 2-no                           
   RPACOR =     .000    partial core radius                                     
   POMASS =    1.000; ZVAL   =    1.000    mass and valenz                      
   RCORE  =    1.100    outmost cutoff radius                                   
   RWIGS  =     .700; RWIGS  =     .370    wigner-seitz radius (au A)           
   ENMAX  =  250.000; ENMIN  =  200.000 eV                                      
   RCLOC  =     .701    cutoff for local pot                                    
   LCOR   =        T    correct aug charges                                     
   LPAW   =        T    paw PP                                                  
   EAUG   =  400.000                                                            
   RMAX   =    2.174    core radius for proj-oper                               
   RAUG   =    1.200    factor for augmentation sphere                          
   RDEP   =    1.112    radius for radial grids                                 
   QCUT   =   -5.749; QGAM   =   11.498    optimization parameters              
                                                                                
   Description                                                                  
     l     E      TYP  RCUT    TYP  RCUT                                        
     0   .000     23  1.100                                                     
     0   .500     23  1.100                                                     
     1  -.300     23  1.100                                                     
  local pseudopotential read in
  atomic valenz-charges read in
  non local Contribution for L=           0  read in
    real space projection operators read in
  non local Contribution for L=           0  read in
    real space projection operators read in
  non local Contribution for L=           1  read in
    real space projection operators read in
    PAW grid and wavefunctions read in
 
   number of l-projection  operators is LMAX  =           3
   number of lm-projection operators is LMMAX =           5
 
 Optimization of the real space projectors (new method)

 maximal supplied QI-value         = 15.12
 optimisation between [QCUT,QGAM] = [ 10.13, 20.26] = [ 28.73,114.92] Ry 
 Optimized for a Real-space Cutoff    1.66 Angstroem

   l    n(q)    QCUT    max X(q) W(low)/X(q) W(high)/X(q)  e(spline) 
   2      9    10.129     3.643    0.26E-04    0.47E-05    0.66E-07
   2      9    10.129    46.462    0.19E-03    0.14E-03    0.36E-06
   0     10    10.129    13.796    0.20E-04    0.13E-05    0.52E-08
   0     10    10.129    57.669    0.74E-04    0.43E-04    0.14E-06
   1     10    10.129     7.440    0.56E-05    0.78E-05    0.31E-07
   1     10    10.129    10.255    0.35E-04    0.26E-05    0.11E-06
 Optimization of the real space projectors (new method)

 maximal supplied QI-value         = 25.13
 optimisation between [QCUT,QGAM] = [ 10.05, 20.36] = [ 28.30,116.06] Ry 
 Optimized for a Real-space Cutoff    1.39 Angstroem

   l    n(q)    QCUT    max X(q) W(low)/X(q) W(high)/X(q)  e(spline) 
   0      8    10.053     5.582    0.33E-04    0.11E-04    0.76E-07
   0      8    10.053    69.432    0.23E-03    0.30E-03    0.26E-06
   1      8    10.053     2.780    0.71E-04    0.11E-03    0.15E-06
   1      8    10.053     4.549    0.18E-03    0.18E-03    0.28E-06
 Optimization of the real space projectors (new method)

 maximal supplied QI-value         = 34.20
 optimisation between [QCUT,QGAM] = [  9.92, 20.18] = [ 27.55,114.04] Ry 
 Optimized for a Real-space Cutoff    1.35 Angstroem

   l    n(q)    QCUT    max X(q) W(low)/X(q) W(high)/X(q)  e(spline) 
   0      8     9.919     4.436    0.29E-04    0.54E-04    0.68E-07
   0      8     9.919    16.131    0.15E-03    0.18E-03    0.35E-06
   1      8     9.919     4.654    0.20E-03    0.45E-03    0.40E-06
 Optimization of the real space projectors (new method)

 maximal supplied QI-value         = 25.13
 optimisation between [QCUT,QGAM] = [ 10.05, 20.36] = [ 28.30,116.06] Ry 
 Optimized for a Real-space Cutoff    1.39 Angstroem

   l    n(q)    QCUT    max X(q) W(low)/X(q) W(high)/X(q)  e(spline) 
   0      8    10.053     5.582    0.33E-04    0.11E-04    0.76E-07
   0      8    10.053    69.432    0.23E-03    0.30E-03    0.26E-06
   1      8    10.053     2.780    0.71E-04    0.11E-03    0.15E-06
   1      8    10.053     4.549    0.18E-03    0.18E-03    0.28E-06
 Optimization of the real space projectors (new method)

 maximal supplied QI-value         = 34.20
 optimisation between [QCUT,QGAM] = [  9.92, 20.18] = [ 27.55,114.04] Ry 
 Optimized for a Real-space Cutoff    1.35 Angstroem

   l    n(q)    QCUT    max X(q) W(low)/X(q) W(high)/X(q)  e(spline) 
   0      8     9.919     4.436    0.29E-04    0.54E-04    0.68E-07
   0      8     9.919    16.131    0.15E-03    0.18E-03    0.35E-06
   1      8     9.919     4.654    0.20E-03    0.45E-03    0.40E-06

 ----------------------------------------------------------------------------- 
|                                                                             |
|  ADVICE TO THIS USER RUNNING 'VASP/VAMP'   (HEAR YOUR MASTER'S VOICE ...):  |
|                                                                             |
|      You enforced a specific xc-type in the INCAR file,                     |
|      a different type was found on the POTCAR file                          |
|          I HOPE YOU KNOW, WHAT YOU ARE  DOING                               |
|                                                                             |
 ----------------------------------------------------------------------------- 

 PAW_PBE Pt 05Jan2001                   :
 energy of atom  1       EATOM= -729.1171
 kinetic energy error for atom=    0.0058 (will be added to EATOM!!)
 PAW_PBE C 08Apr2002                    :
 energy of atom  2       EATOM= -147.1560
 kinetic energy error for atom=    0.0312 (will be added to EATOM!!)
 PAW_PBE H 15Jun2001                    :
 energy of atom  3       EATOM=  -12.4884
 kinetic energy error for atom=    0.0103 (will be added to EATOM!!)
 PAW_PBE C 08Apr2002                    :
 energy of atom  4       EATOM= -147.1560
 kinetic energy error for atom=    0.0312 (will be added to EATOM!!)
 PAW_PBE H 15Jun2001                    :
 energy of atom  5       EATOM=  -12.4884
 kinetic energy error for atom=    0.0103 (will be added to EATOM!!)
 
 
 POSCAR: Pt C H C H						                        
  positions in direct lattice
  velocities in cartesian coordinates
 exchange correlation table for  LEXCH =       41
   RHO(1)=    0.500       N(1)  =     2000
   RHO(2)=  100.500       N(2)  =     4000
 


--------------------------------------------------------------------------------------------------------


 ion  position               nearest neighbor table
   1  0.000  0.000  0.372-   2 2.82   4 2.82   3 2.82   6 2.82   8 2.82   7 2.82  10 2.82  12 2.82
                            16 2.82
   2  0.333  0.000  0.372-   4 2.82   1 2.82   5 2.82  10 2.82   8 2.82   9 2.82   3 2.82  11 2.82
                            17 2.82
   3  0.667  0.000  0.372-   6 2.82   5 2.82   1 2.82   7 2.82  12 2.82   9 2.82  11 2.82   2 2.82
                            18 2.82
   4  0.000  0.333  0.372-   2 2.82   9 2.82   1 2.82   7 2.82   5 2.82  10 2.82   6 2.82  13 2.82
                            15 2.82
   5  0.333  0.333  0.372-   6 2.82   8 2.82   7 2.82   3 2.82   2 2.82   4 2.82  11 2.82  14 2.82
                            13 2.82
   6  0.667  0.333  0.372-   3 2.82   5 2.82   8 2.82   1 2.82  15 2.82   9 2.82  12 2.82  14 2.82
                             4 2.82
   7  0.000  0.667  0.372-   5 2.82   8 2.82   9 2.82   4 2.82   3 2.82  16 2.82  13 2.82   1 2.82
                            18 2.82
   8  0.333  0.667  0.372-   6 2.82   5 2.82   7 2.82   1 2.82  17 2.82  16 2.82   2 2.82  14 2.82
                             9 2.82
   9  0.667  0.667  0.372-  18 2.82   4 2.82   7 2.82   6 2.82  15 2.82   2 2.82   3 2.82   8 2.82
                            17 2.82
  10  0.111  0.111  0.457-  25 2.80  13 2.82  15 2.82  11 2.82   4 2.82   2 2.82  12 2.82  17 2.82
                             1 2.82  16 2.82  19 2.83  21 2.86
  11  0.444  0.111  0.457-  20 2.78  14 2.82  12 2.82  13 2.82  18 2.82  10 2.82   5 2.82   3 2.82
                             2 2.82  17 2.82  26 2.85  19 2.88
  12  0.778  0.111  0.457-  27 2.79  20 2.82  15 2.82  14 2.82  11 2.82   3 2.82   6 2.82  10 2.82
                             1 2.82  16 2.82  18 2.82  21 2.85
  13  0.111  0.444  0.457-  22 2.79  16 2.82  11 2.82  14 2.82  10 2.82  18 2.82   7 2.82   5 2.82
                             4 2.82  15 2.82  19 2.83  24 2.88
  14  0.444  0.444  0.457-  20 2.79  16 2.82  17 2.82  15 2.82  11 2.82  12 2.82  13 2.82   5 2.82
                             8 2.82   6 2.82  22 2.83  23 2.83
  15  0.778  0.444  0.457-  17 2.82  18 2.82  14 2.82  12 2.82  10 2.82   6 2.82   9 2.82   4 2.82
                            13 2.82  21 2.83  24 2.84  23 2.85
  16  0.111  0.778  0.457-  22 2.80  25 2.82  14 2.82  13 2.82  17 2.82   7 2.82   8 2.82  12 2.82
                             1 2.82  10 2.82  18 2.82  27 2.83
  17  0.444  0.778  0.457-  23 2.82  15 2.82  14 2.82  18 2.82  16 2.82   8 2.82  10 2.82   9 2.82
                             2 2.82  11 2.82  26 2.83  25 2.84
  18  0.778  0.778  0.457-  27 2.80  15 2.82  17 2.82   9 2.82  11 2.82  13 2.82   3 2.82   7 2.82
                            16 2.82  12 2.82  24 2.84  26 2.87
  19  0.214  0.226  0.544-  21 2.78  29 2.78  24 2.80  25 2.80  35 2.81  22 2.82  10 2.83  13 2.83
                            20 2.84  26 2.85  11 2.88  28 3.07
  20  0.550  0.224  0.542-  30 2.78  11 2.78  14 2.79  27 2.81  12 2.82  22 2.82  26 2.83  19 2.84
                            36 2.84  23 2.84  21 2.84  29 2.87
  21  0.885  0.228  0.544-  19 2.78  24 2.79  34 2.79  30 2.79  23 2.81  25 2.82  15 2.83  27 2.84
                            20 2.84  12 2.85  10 2.86  28 3.04
  22  0.217  0.558  0.542-  13 2.79  16 2.80  31 2.80  19 2.82  20 2.82  29 2.82  24 2.82  27 2.83
                            14 2.83  25 2.84  23 2.84  33 2.84
  23  0.552  0.560  0.543-  30 2.78  26 2.78  24 2.80  21 2.81  17 2.82  31 2.82  25 2.83  14 2.83
                            22 2.84  20 2.84  15 2.85  32 2.96
  24  0.883  0.558  0.544-  33 2.76  21 2.79  23 2.80  19 2.80  26 2.80  22 2.82  27 2.83  15 2.84
                            18 2.84  13 2.88  32 3.00  28 3.01
  25  0.217  0.893  0.543-  31 2.79  10 2.80  19 2.80  26 2.81  21 2.82  16 2.82  27 2.82  23 2.83
                            35 2.83  22 2.84  17 2.84  34 2.85
  26  0.551  0.889  0.544-  23 2.78  36 2.78  24 2.80  25 2.81  27 2.82  20 2.83  17 2.83  35 2.85
                            19 2.85  11 2.85  18 2.87  32 2.97
  27  0.883  0.892  0.542-  33 2.79  12 2.79  18 2.80  20 2.81  25 2.82  26 2.82  22 2.83  34 2.83
                            24 2.83  16 2.83  21 2.84  36 2.87
  28  0.986  0.345  0.640-  40 2.19  32 2.76  33 2.82  29 2.83  35 2.86  34 2.86  30 2.87  24 3.01
                            21 3.04  19 3.07
  29  0.322  0.338  0.628-  19 2.78  35 2.80  30 2.80  36 2.82  22 2.82  28 2.83  31 2.83  33 2.83
                            20 2.87
  30  0.654  0.336  0.627-  23 2.78  20 2.78  21 2.79  34 2.80  36 2.80  29 2.80  32 2.83  31 2.83
                            28 2.87
  31  0.321  0.673  0.628-  25 2.79  22 2.80  33 2.81  32 2.82  23 2.82  34 2.82  35 2.82  29 2.83
                            30 2.83
  32  0.656  0.668  0.637-  39 2.14  28 2.76  31 2.82  30 2.83  36 2.84  33 2.85  35 2.86  23 2.96
                            26 2.97  24 3.00
  33  0.988  0.675  0.627-  24 2.76  27 2.79  36 2.80  31 2.81  28 2.82  34 2.82  29 2.83  22 2.84
                            32 2.85
  34  0.988  0.008  0.629-  21 2.79  30 2.80  35 2.81  33 2.82  31 2.82  27 2.83  36 2.84  25 2.85
                            28 2.86
  35  0.321  0.007  0.630-  29 2.80  19 2.81  34 2.81  36 2.81  31 2.82  25 2.83  26 2.85  32 2.86
                            28 2.86
  36  0.655  0.004  0.629-  26 2.78  30 2.80  33 2.80  35 2.81  29 2.82  34 2.84  20 2.84  32 2.84
                            27 2.87
  37  0.626  0.485  0.792-  43 1.10  44 1.10  38 1.55  42 1.55
  38  0.574  0.542  0.737-  45 1.10  46 1.11  39 1.53  37 1.55
  39  0.712  0.586  0.713-  47 1.10  40 1.52  38 1.53  32 2.14
  40  0.909  0.431  0.717-  39 1.52  52 1.53  41 1.54  28 2.19
  41  0.926  0.266  0.746-  48 1.10  49 1.10  40 1.54  42 1.55
  42  0.827  0.329  0.797-  50 1.10  51 1.10  37 1.55  41 1.55
  43  0.530  0.445  0.807-  37 1.10
  44  0.603  0.606  0.813-  37 1.10
  45  0.434  0.658  0.734-  38 1.10
  46  0.573  0.427  0.717-  38 1.11
  47  0.697  0.714  0.729-  39 1.10
  48  0.868  0.196  0.725-  41 1.10
  49  0.072  0.165  0.752-  41 1.10
  50  0.903  0.373  0.821-  42 1.10
  51  0.832  0.210  0.815-  42 1.10
  52  0.035  0.495  0.739-  54 1.10  55 1.11  53 1.11  40 1.53
  53  0.998  0.534  0.778-  52 1.11
  54  0.180  0.388  0.737-  52 1.10
  55  0.020  0.617  0.719-  52 1.11
 

IMPORTANT INFORMATION: All symmetrisations will be switched off!
NOSYMM: (Re-)initialisation of all symmetry stuff for point group C_1.

 
 
 KPOINTS: Automatic mesh                          

Automatic generation of k-mesh.
Space group operators:
 irot       det(A)        alpha          n_x          n_y          n_z        tau_x        tau_y        tau_z
    1     1.000000     0.000000     1.000000     0.000000     0.000000     0.000000     0.000000     0.000000
 
 Subroutine IBZKPT returns following result:
 ===========================================
 
 Found     34 irreducible k-points:
 
 Following reciprocal coordinates:
            Coordinates               Weight
  0.000000  0.000000  0.000000      1.000000
  0.125000  0.000000  0.000000      2.000000
  0.250000  0.000000  0.000000      2.000000
  0.375000  0.000000  0.000000      2.000000
  0.500000  0.000000  0.000000      1.000000
  0.000000  0.125000  0.000000      2.000000
  0.125000  0.125000  0.000000      2.000000
  0.250000  0.125000  0.000000      2.000000
  0.375000  0.125000  0.000000      2.000000
  0.500000  0.125000  0.000000      2.000000
 -0.375000  0.125000  0.000000      2.000000
 -0.250000  0.125000  0.000000      2.000000
 -0.125000  0.125000  0.000000      2.000000
  0.000000  0.250000  0.000000      2.000000
  0.125000  0.250000  0.000000      2.000000
  0.250000  0.250000  0.000000      2.000000
  0.375000  0.250000  0.000000      2.000000
  0.500000  0.250000  0.000000      2.000000
 -0.375000  0.250000  0.000000      2.000000
 -0.250000  0.250000  0.000000      2.000000
 -0.125000  0.250000  0.000000      2.000000
  0.000000  0.375000  0.000000      2.000000
  0.125000  0.375000  0.000000      2.000000
  0.250000  0.375000  0.000000      2.000000
  0.375000  0.375000  0.000000      2.000000
  0.500000  0.375000  0.000000      2.000000
 -0.375000  0.375000  0.000000      2.000000
 -0.250000  0.375000  0.000000      2.000000
 -0.125000  0.375000  0.000000      2.000000
  0.000000  0.500000  0.000000      1.000000
  0.125000  0.500000  0.000000      2.000000
  0.250000  0.500000  0.000000      2.000000
  0.375000  0.500000  0.000000      2.000000
  0.500000  0.500000  0.000000      1.000000
 
 Following cartesian coordinates:
            Coordinates               Weight
  0.000000  0.000000  0.000000      1.000000
  0.014783 -0.008535  0.000000      2.000000
  0.029566 -0.017070  0.000000      2.000000
  0.044349 -0.025605  0.000000      2.000000
  0.059133 -0.034140  0.000000      1.000000
  0.000000  0.017070  0.000000      2.000000
  0.014783  0.008535  0.000000      2.000000
  0.029566 -0.000000  0.000000      2.000000
  0.044349 -0.008535  0.000000      2.000000
  0.059133 -0.017070  0.000000      2.000000
 -0.044349  0.042675  0.000000      2.000000
 -0.029566  0.034140  0.000000      2.000000
 -0.014783  0.025605  0.000000      2.000000
  0.000000  0.034140  0.000000      2.000000
  0.014783  0.025605  0.000000      2.000000
  0.029566  0.017070  0.000000      2.000000
  0.044349  0.008535  0.000000      2.000000
  0.059133 -0.000000  0.000000      2.000000
 -0.044349  0.059745  0.000000      2.000000
 -0.029566  0.051210  0.000000      2.000000
 -0.014783  0.042675  0.000000      2.000000
  0.000000  0.051210  0.000000      2.000000
  0.014783  0.042675  0.000000      2.000000
  0.029566  0.034140  0.000000      2.000000
  0.044349  0.025605  0.000000      2.000000
  0.059133  0.017070  0.000000      2.000000
 -0.044349  0.076815  0.000000      2.000000
 -0.029566  0.068280  0.000000      2.000000
 -0.014783  0.059745  0.000000      2.000000
  0.000000  0.068280  0.000000      1.000000
  0.014783  0.059745  0.000000      2.000000
  0.029566  0.051210  0.000000      2.000000
  0.044349  0.042675  0.000000      2.000000
  0.059133  0.034140  0.000000      1.000000
 


--------------------------------------------------------------------------------------------------------




 Dimension of arrays:
   k-points           NKPTS =     34   k-points in BZ     NKDIM =     34   number of bands    NBANDS=    240
   number of dos      NEDOS =    301   number of ions     NIONS =     55
   non local maximal  LDIM  =      6   non local SUM 2l+1 LMDIM =     18
   total plane-waves  NPLWV = 564480
   max r-space proj   IRMAX =   6504   max aug-charges    IRDMAX= 164369
   dimension x,y,z NGX =    56 NGY =   56 NGZ =  180
   dimension x,y,z NGXF=   112 NGYF=  112 NGZF=  360
   support grid    NGXF=   224 NGYF=  224 NGZF=  720
   ions per type =              36   6   9   1   3
   NGX,Y,Z   is equivalent  to a cutoff of  11.01, 11.01, 11.12 a.u.
   NGXF,Y,Z  is equivalent  to a cutoff of  22.02, 22.02, 22.25 a.u.

 SYSTEM =  unknown system                          
 POSCAR =  Pt C H C H						                        

 Startparameter for this run:
   NWRITE =      2    write-flag & timer
   PREC   = accura    normal or accurate (medium, high low for compatibility)
   ISTART =      0    job   : 0-new  1-cont  2-samecut
   ICHARG =      2    charge: 1-file 2-atom 10-const
   ISPIN  =      1    spin polarized calculation?
   LNONCOLLINEAR =      F non collinear calculations
   LSORBIT =      F    spin-orbit coupling
   INIWAV =      1    electr: 0-lowe 1-rand  2-diag
   LASPH  =      F    aspherical Exc in radial PAW
   METAGGA=      F    non-selfconsistent MetaGGA calc.

 Electronic Relaxation 1
   ENCUT  =  396.0 eV  29.11 Ry    5.39 a.u.  13.72 13.72 43.65*2*pi/ulx,y,z
   ENINI  =  396.0     initial cutoff
   ENAUG  =  644.9 eV  augmentation charge cutoff
   NELM   =   1000;   NELMIN=  2; NELMDL= -5     # of ELM steps 
   EDIFF  = 0.1E-05   stopping-criterion for ELM
   LREAL  =      T    real-space projection
   NLSPLINE    = F    spline interpolate recip. space projectors
   LCOMPAT=      F    compatible to vasp.4.4
   GGA_COMPAT  = T    GGA compatible to vasp.4.4-vasp.4.6
   LMAXPAW     = -100 max onsite density
   LMAXMIX     =    2 max onsite mixed and CHGCAR
   VOSKOWN=      0    Vosko Wilk Nusair interpolation
   ROPT   =   -0.00025  -0.00025  -0.00025  -0.00025
   ROPT   =   -0.00025
 Ionic relaxation
   EDIFFG = -.5E-01   stopping-criterion for IOM
   NSW    =   1000    number of steps for IOM
   NBLOCK =      1;   KBLOCK =   1000    inner block; outer block 
   IBRION =      2    ionic relax: 0-MD 1-quasi-New 2-CG
   NFREE  =      1    steps in history (QN), initial steepest desc. (CG)
   ISIF   =      0    stress and relaxation
   IWAVPR =     11    prediction:  0-non 1-charg 2-wave 3-comb
   ISYM   =      0    0-nonsym 1-usesym 2-fastsym
   LCORR  =      T    Harris-Foulkes like correction to forces

   POTIM  = 0.1000    time-step for ionic-motion
   TEIN   =    0.0    initial temperature
   TEBEG  =    0.0;   TEEND  =   0.0 temperature during run
   SMASS  =  -3.00    Nose mass-parameter (am)
   estimated Nose-frequenzy (Omega)   =  0.10E-29 period in steps =****** mass=  -0.163E-26a.u.
   SCALEE = 1.0000    scale energy and forces
   NPACO  =    256;   APACO  = 16.0  distance and # of slots for P.C.
   PSTRESS=    0.0 pullay stress

  Mass of Ions in am
   POMASS = 195.08 12.01  1.00 12.01  1.00
  Ionic Valenz
   ZVAL   =  10.00  4.00  1.00  4.00  1.00
  Atomic Wigner-Seitz radii
   RWIGS  =  -1.00 -1.00 -1.00 -1.00 -1.00
  virtual crystal weights 
   VCA    =   1.00  1.00  1.00  1.00  1.00
   NELECT =     400.0000    total number of electrons
   NUPDOWN=      -1.0000    fix difference up-down

 DOS related values:
   EMIN   =  10.00;   EMAX   =-10.00  energy-range for DOS
   EFERMI =   0.00
   ISMEAR =     2;   SIGMA  =   0.20  broadening in eV -4-tet -1-fermi 0-gaus

 Electronic relaxation 2 (details)
   IALGO  =     68    algorithm
   LDIAG  =      T    sub-space diagonalisation (order eigenvalues)
   LSUBROT=      F    optimize rotation matrix (better conditioning)
   TURBO    =      0    0=normal 1=particle mesh
   IRESTART =      0    0=no restart 2=restart with 2 vectors
   NREBOOT  =      0    no. of reboots
   NMIN     =      0    reboot dimension
   EREF     =   0.00    reference energy to select bands
   IMIX   =      4    mixing-type and parameters
     AMIX     =   0.40;   BMIX     =  4.00
     AMIX_MAG =   1.60;   BMIX_MAG =  4.00
     AMIN     =   0.10
     WC   =   100.;   INIMIX=   1;  MIXPRE=   1;  MAXMIX=  80

 Intra band minimization:
   WEIMIN = 0.0010     energy-eigenvalue tresh-hold
   EBREAK =  0.10E-08  absolut break condition
   DEPER  =   0.30     relativ break condition  

   TIME   =   0.40     timestep for ELM

  volume/ion in A,a.u.               =      30.29       204.39
  Fermi-wavevector in a.u.,A,eV,Ry     =   1.017537  1.922866 14.087222  1.035382
  Thomas-Fermi vector in A             =   2.150944
 
 Write flags
   LWAVE        =      F    write WAVECAR
   LDOWNSAMPLE  =      F    k-point downsampling of WAVECAR
   LCHARG       =      T    write CHGCAR
   LVTOT        =      F    write LOCPOT, total local potential
   LVHAR        =      F    write LOCPOT, Hartree potential only
   LELF         =      F    write electronic localiz. function (ELF)
   LORBIT       =      0    0 simple, 1 ext, 2 COOP (PROOUT), +10 PAW based schemes


 Dipole corrections
   LMONO  =      F    monopole corrections only (constant potential shift)
   LDIPOL =      F    correct potential (dipole corrections)
   IDIPOL =      0    1-x, 2-y, 3-z, 4-all directions 
   EPSILON=  1.0000000 bulk dielectric constant

 Exchange correlation treatment:
   GGA     =    OR    GGA type
   LEXCH   =    41    internal setting for exchange type
   VOSKOWN=      0    Vosko Wilk Nusair interpolation
   LHFCALC =     F    Hartree Fock is set to
   LHFONE  =     F    Hartree Fock one center treatment
   AEXX    =    0.0000 exact exchange contribution

 vdW DFT:
   LUSE_VDW   =     T    switch on vdW DFT
   Zab_VDW    =-.8491    correlation parameter
   PARAM1     =0.1234
   PARAM2     =1.0000
   PARAM3     =0.0000
   -- rVV10 --
   BPARAM     = 6.3000
   CPARAM     = 0.0093

 Linear response parameters
   LEPSILON=     F    determine dielectric tensor
   LRPA    =     F    only Hartree local field effects (RPA)
   LNABLA  =     F    use nabla operator in PAW spheres
   LVEL    =     F    velocity operator in full k-point grid
   LINTERFAST=   F  fast interpolation
   KINTER  =     0    interpolate to denser k-point grid
   CSHIFT  =0.1000    complex shift for real part using Kramers Kronig
   OMEGAMAX=  -1.0    maximum frequency
   DEG_THRESHOLD= 0.2000000E-02 threshold for treating states as degnerate
   RTIME   =   -0.100 relaxation time in fs
  (WPLASMAI=    0.000 imaginary part of plasma frequency in eV, 0.658/RTIME)
   DFIELD  = 0.0000000 0.0000000 0.0000000 field for delta impulse in time
 
 Orbital magnetization related:
   ORBITALMAG=     F  switch on orbital magnetization
   LCHIMAG   =     F  perturbation theory with respect to B field
   DQ        =  0.001000  dq finite difference perturbation B field
   LLRAUG    =     F  two centre corrections for induced B field



--------------------------------------------------------------------------------------------------------


 conjugate gradient relaxation of ions
   using selective dynamics as specified on POSCAR
 charge density and potential will be updated during run
 non-spin polarized calculation
 RMM-DIIS sequential band-by-band and
  variant of blocked Davidson during initial phase
 perform sub-space diagonalisation
    before iterative eigenvector-optimisation
 modified Broyden-mixing scheme, WC =      100.0
 initial mixing is a Kerker type mixing with AMIX =  0.4000 and BMIX =      4.0000
 Hartree-type preconditioning will be used
 using additional bands           40
 real space projection scheme for non local part
 use partial core corrections
 calculate Harris-corrections to forces 
   (improved forces if not selfconsistent)
 use gradient corrections 
 use of overlap-Matrix (Vanderbilt PP)
 Methfessel and Paxton  Order N= 2 SIGMA  =   0.20


--------------------------------------------------------------------------------------------------------


  energy-cutoff  :      396.00
  volume of cell :     1665.84
      direct lattice vectors                 reciprocal lattice vectors
     8.455582619  0.000000000  0.000000000     0.118265062 -0.068280376  0.000000000
     4.227791797  7.322749070  0.000000000     0.000000000  0.136560736  0.000000000
     0.000000000  0.000000000 26.903955460     0.000000000  0.000000000  0.037169256

  length of vectors
     8.455582619  8.455582619 26.903955460     0.136560736  0.136560736  0.037169256


 
 k-points in units of 2pi/SCALE and weight: Automatic mesh                          
   0.00000000  0.00000000  0.00000000       0.016
   0.01478313 -0.00853505  0.00000000       0.031
   0.02956627 -0.01707009  0.00000000       0.031
   0.04434940 -0.02560514  0.00000000       0.031
   0.05913253 -0.03414019  0.00000000       0.016
   0.00000000  0.01707009  0.00000000       0.031
   0.01478313  0.00853504  0.00000000       0.031
   0.02956627 -0.00000000  0.00000000       0.031
   0.04434940 -0.00853505  0.00000000       0.031
   0.05913253 -0.01707010  0.00000000       0.031
  -0.04434940  0.04267523  0.00000000       0.031
  -0.02956627  0.03414019  0.00000000       0.031
  -0.01478313  0.02560514  0.00000000       0.031
   0.00000000  0.03414018  0.00000000       0.031
   0.01478313  0.02560514  0.00000000       0.031
   0.02956627  0.01707009  0.00000000       0.031
   0.04434940  0.00853504  0.00000000       0.031
   0.05913253 -0.00000000  0.00000000       0.031
  -0.04434940  0.05974532  0.00000000       0.031
  -0.02956627  0.05121028  0.00000000       0.031
  -0.01478313  0.04267523  0.00000000       0.031
   0.00000000  0.05121028  0.00000000       0.031
   0.01478313  0.04267523  0.00000000       0.031
   0.02956627  0.03414018  0.00000000       0.031
   0.04434940  0.02560513  0.00000000       0.031
   0.05913253  0.01707009  0.00000000       0.031
  -0.04434940  0.07681542  0.00000000       0.031
  -0.02956627  0.06828037  0.00000000       0.031
  -0.01478313  0.05974532  0.00000000       0.031
   0.00000000  0.06828037  0.00000000       0.016
   0.01478313  0.05974532  0.00000000       0.031
   0.02956627  0.05121027  0.00000000       0.031
   0.04434940  0.04267523  0.00000000       0.031
   0.05913253  0.03414018  0.00000000       0.016
 
 k-points in reciprocal lattice and weights: Automatic mesh                          
   0.00000000  0.00000000  0.00000000       0.016
   0.12500000  0.00000000  0.00000000       0.031
   0.25000000  0.00000000  0.00000000       0.031
   0.37500000  0.00000000  0.00000000       0.031
   0.50000000  0.00000000  0.00000000       0.016
   0.00000000  0.12500000  0.00000000       0.031
   0.12500000  0.12500000  0.00000000       0.031
   0.25000000  0.12500000  0.00000000       0.031
   0.37500000  0.12500000  0.00000000       0.031
   0.50000000  0.12500000  0.00000000       0.031
  -0.37500000  0.12500000  0.00000000       0.031
  -0.25000000  0.12500000  0.00000000       0.031
  -0.12500000  0.12500000  0.00000000       0.031
   0.00000000  0.25000000  0.00000000       0.031
   0.12500000  0.25000000  0.00000000       0.031
   0.25000000  0.25000000  0.00000000       0.031
   0.37500000  0.25000000  0.00000000       0.031
   0.50000000  0.25000000  0.00000000       0.031
  -0.37500000  0.25000000  0.00000000       0.031
  -0.25000000  0.25000000  0.00000000       0.031
  -0.12500000  0.25000000  0.00000000       0.031
   0.00000000  0.37500000  0.00000000       0.031
   0.12500000  0.37500000  0.00000000       0.031
   0.25000000  0.37500000  0.00000000       0.031
   0.37500000  0.37500000  0.00000000       0.031
   0.50000000  0.37500000  0.00000000       0.031
  -0.37500000  0.37500000  0.00000000       0.031
  -0.25000000  0.37500000  0.00000000       0.031
  -0.12500000  0.37500000  0.00000000       0.031
   0.00000000  0.50000000  0.00000000       0.016
   0.12500000  0.50000000  0.00000000       0.031
   0.25000000  0.50000000  0.00000000       0.031
   0.37500000  0.50000000  0.00000000       0.031
   0.50000000  0.50000000  0.00000000       0.016
 
 position of ions in fractional coordinates (direct lattice) 
   0.00000000  0.00000000  0.37169254
   0.33333328  0.00000000  0.37169254
   0.66666669  0.00000000  0.37169254
   0.00000000  0.33333331  0.37169254
   0.33333334  0.33333331  0.37169254
   0.66666663  0.33333331  0.37169254
   0.00000000  0.66666663  0.37169254
   0.33333331  0.66666663  0.37169254
   0.66666669  0.66666663  0.37169254
   0.11111110  0.11111113  0.45723084
   0.44444445  0.11111113  0.45723084
   0.77777773  0.11111113  0.45723084
   0.11111113  0.44444442  0.45723084
   0.44444442  0.44444442  0.45723084
   0.77777767  0.44444442  0.45723084
   0.11111113  0.77777767  0.45723084
   0.44444442  0.77777767  0.45723084
   0.77777767  0.77777767  0.45723084
   0.21388130  0.22626262  0.54417860
   0.55038565  0.22399499  0.54173859
   0.88496221  0.22751836  0.54407835
   0.21709836  0.55783453  0.54214444
   0.55165293  0.55967491  0.54345042
   0.88314202  0.55793788  0.54432057
   0.21692511  0.89320474  0.54289085
   0.55104765  0.88894853  0.54429661
   0.88332502  0.89241436  0.54232817
   0.98586434  0.34525300  0.64009722
   0.32167058  0.33804110  0.62832192
   0.65421498  0.33574679  0.62676417
   0.32131569  0.67311865  0.62756313
   0.65599903  0.66824487  0.63707847
   0.98809830  0.67467967  0.62725564
   0.98832889  0.00770824  0.62859195
   0.32071325  0.00724738  0.62971821
   0.65461732  0.00427059  0.62880286
   0.62561712  0.48541866  0.79167687
   0.57373658  0.54152555  0.73667127
   0.71209706  0.58558528  0.71332102
   0.90858841  0.43066993  0.71724396
   0.92649701  0.26557178  0.74619822
   0.82681447  0.32908203  0.79705131
   0.53043069  0.44464614  0.80709046
   0.60328572  0.60574193  0.81334552
   0.43379296  0.65847647  0.73378896
   0.57307803  0.42718270  0.71681772
   0.69656065  0.71368806  0.72874851
   0.86783789  0.19551920  0.72516932
   0.07190902  0.16525520  0.75189093
   0.90270529  0.37323958  0.82118109
   0.83242785  0.20994563  0.81543332
   0.03487693  0.49502089  0.73875724
   0.99793770  0.53421533  0.77818482
   0.17971803  0.38790371  0.73743874
   0.01970882  0.61730418  0.71946518
 
 position of ions in cartesian coordinates  (Angst):
   0.00000000  0.00000000  9.99999949
   2.81852712  0.00000000  9.99999949
   5.63705525  0.00000000  9.99999949
   1.40926385  2.44091621  9.99999949
   4.22779147  2.44091621  9.99999949
   7.04631859  2.44091621  9.99999949
   2.81852770  4.88183242  9.99999949
   5.63705506  4.88183242  9.99999949
   8.45558295  4.88183242  9.99999949
   1.40926377  0.81363890 12.30131805
   4.22779146  0.81363890 12.30131805
   7.04631857  0.81363890 12.30131805
   2.81852778  3.25455495 12.30131805
   5.63705496  3.25455495 12.30131805
   8.45558183  3.25455495 12.30131805
   4.22779138  5.69547072 12.30131805
   7.04631856  5.69547072 12.30131805
   9.86484543  5.69547072 12.30131805
   2.76508224  1.65686437 14.64055682
   5.60083555  1.64025912 14.57491083
   8.44477137  1.66605984 14.63785972
   4.19410133  4.08488226 14.58582984
   7.03073587  4.09835891 14.62096580
   9.82632549  4.08563906 14.64437643
   5.61051189  6.54071417 14.60591136
   8.41771828  6.50954706 14.64373163
  11.24196981  6.53492643 14.59077302
   9.79571517  2.52820105 17.22114720
   4.14907953  2.47539014 16.90434486
   6.95123635  2.45858946 16.86243524
   5.56271689  4.92907895 16.88393051
   8.37205416  4.89338951 17.13993092
  11.20735196  4.94050991 16.87565787
   8.38948543  0.05644554 16.91160992
   2.74245778  0.05307076 16.94191072
   5.55322598  0.03127245 16.91728412
   7.34220625  3.55459900 21.29923931
   7.14073432  3.96545574 19.81937095
   8.49692815  4.28809407 19.19115707
   9.50342715  3.15368782 19.29669956
   8.95685420  1.94471554 20.07568365
   8.38248832  2.40978510 21.44383285
   6.36497182  3.25603214 21.71392580
   7.66208305  4.43569618 21.88221173
   6.45187365  4.82185795 19.74182555
   6.65174809  3.12815169 19.28523199
   8.90715070  5.22615859 19.60621745
   8.16468942  1.43173802 19.50992305
   1.30669724  1.21012234 20.22884021
   9.21087837  2.73313982 22.09301944
   7.92626885  1.53737917 21.93838182
   2.38775005  3.62491380 19.87549201
  10.69669590  3.91192484 20.93624984
   3.15959674  2.84052152 19.84001888
   2.77648310  4.52036359 19.35645927
 


--------------------------------------------------------------------------------------------------------


 k-point  1 :   0.0000 0.0000 0.0000  plane waves:   29865
 k-point  2 :   0.1250 0.0000 0.0000  plane waves:   29830
 k-point  3 :   0.2500 0.0000 0.0000  plane waves:   29798
 k-point  4 :   0.3750 0.0000 0.0000  plane waves:   29786
 k-point  5 :   0.5000 0.0000 0.0000  plane waves:   29806
 k-point  6 :   0.0000 0.1250 0.0000  plane waves:   29830
 k-point  7 :   0.1250 0.1250 0.0000  plane waves:   29830
 k-point  8 :   0.2500 0.1250 0.0000  plane waves:   29817
 k-point  9 :   0.3750 0.1250 0.0000  plane waves:   29820
 k-point 10 :   0.5000 0.1250 0.0000  plane waves:   29812
 k-point 11 :  -0.3750 0.1250 0.0000  plane waves:   29812
 k-point 12 :  -0.2500 0.1250 0.0000  plane waves:   29820
 k-point 13 :  -0.1250 0.1250 0.0000  plane waves:   29817
 k-point 14 :   0.0000 0.2500 0.0000  plane waves:   29798
 k-point 15 :   0.1250 0.2500 0.0000  plane waves:   29817
 k-point 16 :   0.2500 0.2500 0.0000  plane waves:   29798
 k-point 17 :   0.3750 0.2500 0.0000  plane waves:   29820
 k-point 18 :   0.5000 0.2500 0.0000  plane waves:   29770
 k-point 19 :  -0.3750 0.2500 0.0000  plane waves:   29794
 k-point 20 :  -0.2500 0.2500 0.0000  plane waves:   29770
 k-point 21 :  -0.1250 0.2500 0.0000  plane waves:   29820
 k-point 22 :   0.0000 0.3750 0.0000  plane waves:   29786
 k-point 23 :   0.1250 0.3750 0.0000  plane waves:   29820
 k-point 24 :   0.2500 0.3750 0.0000  plane waves:   29820
 k-point 25 :   0.3750 0.3750 0.0000  plane waves:   29786
 k-point 26 :   0.5000 0.3750 0.0000  plane waves:   29812
 k-point 27 :  -0.3750 0.3750 0.0000  plane waves:   29794
 k-point 28 :  -0.2500 0.3750 0.0000  plane waves:   29794
 k-point 29 :  -0.1250 0.3750 0.0000  plane waves:   29812
 k-point 30 :   0.0000 0.5000 0.0000  plane waves:   29806
 k-point 31 :   0.1250 0.5000 0.0000  plane waves:   29812
 k-point 32 :   0.2500 0.5000 0.0000  plane waves:   29770
 k-point 33 :   0.3750 0.5000 0.0000  plane waves:   29812
 k-point 34 :   0.5000 0.5000 0.0000  plane waves:   29806

 maximum and minimum number of plane-waves per node :      3750     3698

 maximum number of plane-waves:     29865
 maximum index in each direction: 
   IXMAX=   14   IYMAX=   13   IZMAX=   43
   IXMIN=  -14   IYMIN=  -14   IZMIN=  -43


 real space projection operators:
  total allocation   :      34888.75 KBytes
  max/ min on nodes  :       4366.64       4355.23


 parallel 3D FFT for wavefunctions:
    minimum data exchange during FFTs selected (reduces bandwidth)
 parallel 3D FFT for charge:
    minimum data exchange during FFTs selected (reduces bandwidth)


 total amount of memory used by VASP MPI-rank0   126973. kBytes
=======================================================================

   base      :      30000. kBytes
   nonlr-proj:      11444. kBytes
   fftplans  :      13445. kBytes
   grid      :       9308. kBytes
   one-center:        108. kBytes
   wavefun   :      62668. kBytes
 
     INWAV:  cpu time    0.0001: real time    0.0001
 Broyden mixing: mesh for mixing (old mesh)
   NGX = 27   NGY = 27   NGZ = 87
  (NGX  =112   NGY  =112   NGZ  =360)
  gives a total of  63423 points

 initial charge density was supplied:
 charge density of overlapping atoms calculated
 number of electron     400.0000000 magnetization 
 keeping initial charge density in first step


--------------------------------------------------------------------------------------------------------


 Maximum index for non-local projection operator          822
 Maximum index for augmentation-charges         4804 (set IRDMAX)


--------------------------------------------------------------------------------------------------------


 First call to EWALD:  gamma=   0.150
 Maximum number of real-space cells 4x 4x 1
 Maximum number of reciprocal cells 2x 2x 6

    FEWALD:  cpu time    0.0070: real time    0.0070


--------------------------------------- Iteration      1(   1)  ---------------------------------------


vdW kernel read from vdw_kernel.bindat
  0.0000  0.2424  0.5071  0.7962  1.1119  1.4567  1.8333  2.2446  2.6937  3.1842
  3.7199  4.3049  4.9438  5.6415  6.4036  7.2358  8.1446  9.1372 10.2212 11.4050
 12.6979 14.1099 15.6519 17.3360 19.1751 21.1837 23.3773 25.7729 28.3892 31.2465
 34.3669 37.7748 41.4965 45.5611 50.0000
 
    POTLOK:  cpu time    4.9178: real time    5.0153
    SETDIJ:  cpu time    0.1450: real time    0.1456
     EDDAV:  cpu time   49.0830: real time   49.0918
       DOS:  cpu time    0.0171: real time    0.0172
    --------------------------------------------
      LOOP:  cpu time   54.1630: real time   54.2699

 eigenvalue-minimisations  : 16408
 total energy-change (2. order) : 0.3526101E+04  (-0.1436450E+05)
 number of electron     400.0000000 magnetization 
 augmentation part      400.0000000 magnetization 

 Free energy of the ion-electron system (eV)
  ---------------------------------------------------
  alpha Z        PSCENC =      1298.95982110
  Ewald energy   TEWEN  =    156327.62398613
  -Hartree energ DENC   =   -185063.84666432
  -exchange      EXHF   =         0.00000000
  -V(xc)+E(xc)   XCENC  =       214.97136088
  PAW double counting   =     20938.56416657   -19893.49302636
  entropy T*S    EENTRO =         0.00122439
  eigenvalues    EBANDS =      2195.73983751
  atomic energy  EATOM  =     27507.58070796
  Solvation  Ediel_sol  =         0.00000000
  ---------------------------------------------------
  free energy    TOTEN  =      3526.10141388 eV

  energy without entropy =     3526.10018948  energy(sigma->0) =     3526.10110778


--------------------------------------------------------------------------------------------------------




--------------------------------------- Iteration      1(   2)  ---------------------------------------


     EDDAV:  cpu time   50.3567: real time   50.3595
       DOS:  cpu time    0.0188: real time    0.0188
    --------------------------------------------
      LOOP:  cpu time   50.3756: real time   50.3783

 eigenvalue-minimisations  : 17056
 total energy-change (2. order) :-0.3338510E+04  (-0.3067211E+04)
 number of electron     400.0000000 magnetization 
 augmentation part      400.0000000 magnetization 

 Free energy of the ion-electron system (eV)
  ---------------------------------------------------
  alpha Z        PSCENC =      1298.95982110
  Ewald energy   TEWEN  =    156327.62398613
  -Hartree energ DENC   =   -185063.84666432
  -exchange      EXHF   =         0.00000000
  -V(xc)+E(xc)   XCENC  =       214.97136088
  PAW double counting   =     20938.56416657   -19893.49302636
  entropy T*S    EENTRO =         0.00002542
  eigenvalues    EBANDS =     -1142.76924673
  atomic energy  EATOM  =     27507.58070796
  Solvation  Ediel_sol  =         0.00000000
  ---------------------------------------------------
  free energy    TOTEN  =       187.59113066 eV

  energy without entropy =      187.59110524  energy(sigma->0) =      187.59112430


--------------------------------------------------------------------------------------------------------




--------------------------------------- Iteration      1(   3)  ---------------------------------------


     EDDAV:  cpu time   62.1779: real time   62.1812
       DOS:  cpu time    0.0210: real time    0.0210
    --------------------------------------------
      LOOP:  cpu time   62.1989: real time   62.2022

 eigenvalue-minimisations  : 22256
 total energy-change (2. order) :-0.4319766E+03  (-0.4017034E+03)
 number of electron     400.0000000 magnetization 
 augmentation part      400.0000000 magnetization 

 Free energy of the ion-electron system (eV)
  ---------------------------------------------------
  alpha Z        PSCENC =      1298.95982110
  Ewald energy   TEWEN  =    156327.62398613
  -Hartree energ DENC   =   -185063.84666432
  -exchange      EXHF   =         0.00000000
  -V(xc)+E(xc)   XCENC  =       214.97136088
  PAW double counting   =     20938.56416657   -19893.49302636
  entropy T*S    EENTRO =        -0.00458995
  eigenvalues    EBANDS =     -1574.74126463
  atomic energy  EATOM  =     27507.58070796
  Solvation  Ediel_sol  =         0.00000000
  ---------------------------------------------------
  free energy    TOTEN  =      -244.38550261 eV

  energy without entropy =     -244.38091266  energy(sigma->0) =     -244.38435512


--------------------------------------------------------------------------------------------------------




--------------------------------------- Iteration      1(   4)  ---------------------------------------


     EDDAV:  cpu time   65.5105: real time   65.5388
       DOS:  cpu time    0.0213: real time    0.0213
    --------------------------------------------
      LOOP:  cpu time   65.5318: real time   65.5601

 eigenvalue-minimisations  : 23736
 total energy-change (2. order) :-0.3303342E+02  (-0.2983178E+02)
 number of electron     400.0000000 magnetization 
 augmentation part      400.0000000 magnetization 

 Free energy of the ion-electron system (eV)
  ---------------------------------------------------
  alpha Z        PSCENC =      1298.95982110
  Ewald energy   TEWEN  =    156327.62398613
  -Hartree energ DENC   =   -185063.84666432
  -exchange      EXHF   =         0.00000000
  -V(xc)+E(xc)   XCENC  =       214.97136088
  PAW double counting   =     20938.56416657   -19893.49302636
  entropy T*S    EENTRO =        -0.07127347
  eigenvalues    EBANDS =     -1607.70800028
  atomic energy  EATOM  =     27507.58070796
  Solvation  Ediel_sol  =         0.00000000
  ---------------------------------------------------
  free energy    TOTEN  =      -277.41892179 eV

  energy without entropy =     -277.34764831  energy(sigma->0) =     -277.40110342


--------------------------------------------------------------------------------------------------------




--------------------------------------- Iteration      1(   5)  ---------------------------------------


     EDDAV:  cpu time   62.7025: real time   62.7278
       DOS:  cpu time    0.0211: real time    0.0211
    CHARGE:  cpu time    3.1254: real time    3.1258
    MIXING:  cpu time    0.0119: real time    0.0126
    --------------------------------------------
      LOOP:  cpu time   65.8609: real time   65.8873

 eigenvalue-minimisations  : 22520
 total energy-change (2. order) :-0.1077471E+01  (-0.1054344E+01)
 number of electron     400.0000005 magnetization 
 augmentation part      106.6015951 magnetization 

 Broyden mixing:
  rms(total) = 0.27825E+01    rms(broyden)= 0.27820E+01
  rms(prec ) = 0.30082E+01
  weight for this iteration     100.00

 Free energy of the ion-electron system (eV)
  ---------------------------------------------------
  alpha Z        PSCENC =      1298.95982110
  Ewald energy   TEWEN  =    156327.62398613
  -Hartree energ DENC   =   -185063.84666432
  -exchange      EXHF   =         0.00000000
  -V(xc)+E(xc)   XCENC  =       214.97136088
  PAW double counting   =     20938.56416657   -19893.49302636
  entropy T*S    EENTRO =        -0.07312207
  eigenvalues    EBANDS =     -1608.78362235
  atomic energy  EATOM  =     27507.58070796
  Solvation  Ediel_sol  =         0.00000000
  ---------------------------------------------------
  free energy    TOTEN  =      -278.49639245 eV

  energy without entropy =     -278.42327038  energy(sigma->0) =     -278.47811194


--------------------------------------------------------------------------------------------------------




--------------------------------------- Iteration      1(   6)  ---------------------------------------


    POTLOK:  cpu time    3.6992: real time    3.6997
    SETDIJ:  cpu time    0.1279: real time    0.1278
    EDDIAG:  cpu time    9.0398: real time    9.0408
  RMM-DIIS:  cpu time   25.9777: real time   25.9800
    ORTHCH:  cpu time    1.0545: real time    1.0546
       DOS:  cpu time    0.0210: real time    0.0210
    CHARGE:  cpu time    3.1036: real time    3.1039
    MIXING:  cpu time    0.0061: real time    0.0065
    --------------------------------------------
      LOOP:  cpu time   43.0297: real time   43.0342

 eigenvalue-minimisations  : 18348
 total energy-change (2. order) : 0.8327803E+01  (-0.1420486E+01)
 number of electron     400.0000005 magnetization 
 augmentation part      109.0318127 magnetization 

 Broyden mixing:
  rms(total) = 0.22791E+01    rms(broyden)= 0.22790E+01
  rms(prec ) = 0.27703E+01
  weight for this iteration     100.00

 eigenvalues of (default mixing * dielectric matrix)
  average eigenvalue GAMMA=   1.0005
  1.0005

 Free energy of the ion-electron system (eV)
  ---------------------------------------------------
  alpha Z        PSCENC =      1298.95982110
  Ewald energy   TEWEN  =    156327.62398613
  -Hartree energ DENC   =   -184750.80395132
  -exchange      EXHF   =         0.00000000
  -V(xc)+E(xc)   XCENC  =       212.90160413
  PAW double counting   =     20927.88720491   -19927.49514064
  entropy T*S    EENTRO =         0.01811705
  eigenvalues    EBANDS =     -1866.84093890
  atomic energy  EATOM  =     27507.58070796
  Solvation  Ediel_sol  =         0.00000000
  ---------------------------------------------------
  free energy    TOTEN  =      -270.16858957 eV

  energy without entropy =     -270.18670661  energy(sigma->0) =     -270.17311883


--------------------------------------------------------------------------------------------------------




--------------------------------------- Iteration      1(   7)  ---------------------------------------


    POTLOK:  cpu time    3.6906: real time    3.6911
    SETDIJ:  cpu time    0.1280: real time    0.1280
    EDDIAG:  cpu time    9.0367: real time    9.0372
  RMM-DIIS:  cpu time   26.0399: real time   26.0412
    ORTHCH:  cpu time    1.0505: real time    1.0506
       DOS:  cpu time    0.0215: real time    0.0215
    CHARGE:  cpu time    3.1016: real time    3.1018
    MIXING:  cpu time    0.0054: real time    0.0054
    --------------------------------------------
      LOOP:  cpu time   43.0742: real time   43.0767

 eigenvalue-minimisations  : 18252
 total energy-change (2. order) :-0.1246134E+02  (-0.1882802E+01)
 number of electron     400.0000005 magnetization 
 augmentation part      108.1855887 magnetization 

 Broyden mixing:
  rms(total) = 0.29198E+01    rms(broyden)= 0.29197E+01
  rms(prec ) = 0.47527E+01
  weight for this iteration     100.00

 eigenvalues of (default mixing * dielectric matrix)
  average eigenvalue GAMMA=   0.8803
  1.5653  0.1953

 Free energy of the ion-electron system (eV)
  ---------------------------------------------------
  alpha Z        PSCENC =      1298.95982110
  Ewald energy   TEWEN  =    156327.62398613
  -Hartree energ DENC   =   -184880.11571717
  -exchange      EXHF   =         0.00000000
  -V(xc)+E(xc)   XCENC  =       212.32360627
  PAW double counting   =     21028.05440124   -20041.03448169
  entropy T*S    EENTRO =        -0.02324457
  eigenvalues    EBANDS =     -1735.99900495
  atomic energy  EATOM  =     27507.58070796
  Solvation  Ediel_sol  =         0.00000000
  ---------------------------------------------------
  free energy    TOTEN  =      -282.62992567 eV

  energy without entropy =     -282.60668110  energy(sigma->0) =     -282.62411453


--------------------------------------------------------------------------------------------------------




--------------------------------------- Iteration      1(   8)  ---------------------------------------


    POTLOK:  cpu time    3.6766: real time    3.6907
    SETDIJ:  cpu time    0.1275: real time    0.1274
    EDDIAG:  cpu time    9.0464: real time    9.0469
  RMM-DIIS:  cpu time   25.5436: real time   25.5448
    ORTHCH:  cpu time    1.0511: real time    1.0512
       DOS:  cpu time    0.0213: real time    0.0213
    CHARGE:  cpu time    3.1094: real time    3.1095
    MIXING:  cpu time    0.0053: real time    0.0053
    --------------------------------------------
      LOOP:  cpu time   42.5811: real time   42.5972

 eigenvalue-minimisations  : 18131
 total energy-change (2. order) : 0.1043864E+02  (-0.1432733E+01)
 number of electron     400.0000005 magnetization 
 augmentation part      109.1210370 magnetization 

 Broyden mixing:
  rms(total) = 0.24424E+01    rms(broyden)= 0.24422E+01
  rms(prec ) = 0.34322E+01
  weight for this iteration     100.00

 eigenvalues of (default mixing * dielectric matrix)
  average eigenvalue GAMMA=   1.0470
  2.6846  0.3153  0.1413

 Free energy of the ion-electron system (eV)
  ---------------------------------------------------
  alpha Z        PSCENC =      1298.95982110
  Ewald energy   TEWEN  =    156327.62398613
  -Hartree energ DENC   =   -184963.50773519
  -exchange      EXHF   =         0.00000000
  -V(xc)+E(xc)   XCENC  =       211.70055184
  PAW double counting   =     21097.34639771   -20123.08379349
  entropy T*S    EENTRO =         0.04313018
  eigenvalues    EBANDS =     -1628.85435062
  atomic energy  EATOM  =     27507.58070796
  Solvation  Ediel_sol  =         0.00000000
  ---------------------------------------------------
  free energy    TOTEN  =      -272.19128438 eV

  energy without entropy =     -272.23441455  energy(sigma->0) =     -272.20206692


--------------------------------------------------------------------------------------------------------




--------------------------------------- Iteration      1(   9)  ---------------------------------------


    POTLOK:  cpu time    3.6912: real time    3.6918
    SETDIJ:  cpu time    0.1271: real time    0.1271
    EDDIAG:  cpu time    9.0342: real time    9.0347
  RMM-DIIS:  cpu time   23.5189: real time   23.5201
    ORTHCH:  cpu time    1.0455: real time    1.0456
       DOS:  cpu time    0.0229: real time    0.0228
    CHARGE:  cpu time    3.1008: real time    3.1009
    MIXING:  cpu time    0.0054: real time    0.0054
    --------------------------------------------
      LOOP:  cpu time   40.5460: real time   40.5484

 eigenvalue-minimisations  : 16525
 total energy-change (2. order) : 0.1634107E+02  (-0.1627419E+01)
 number of electron     400.0000005 magnetization 
 augmentation part      112.4865557 magnetization 

 Broyden mixing:
  rms(total) = 0.13197E+01    rms(broyden)= 0.13194E+01
  rms(prec ) = 0.16685E+01
  weight for this iteration     100.00

 eigenvalues of (default mixing * dielectric matrix)
  average eigenvalue GAMMA=   0.9960
  2.7621  0.6417  0.4460  0.1341

 Free energy of the ion-electron system (eV)
  ---------------------------------------------------
  alpha Z        PSCENC =      1298.95982110
  Ewald energy   TEWEN  =    156327.62398613
  -Hartree energ DENC   =   -184725.67369225
  -exchange      EXHF   =         0.00000000
  -V(xc)+E(xc)   XCENC  =       209.79137776
  PAW double counting   =     21340.32289276   -20405.14631371
  entropy T*S    EENTRO =        -0.01975389
  eigenvalues    EBANDS =     -1809.28923823
  atomic energy  EATOM  =     27507.58070796
  Solvation  Ediel_sol  =         0.00000000
  ---------------------------------------------------
  free energy    TOTEN  =      -255.85021236 eV

  energy without entropy =     -255.83045847  energy(sigma->0) =     -255.84527389


--------------------------------------------------------------------------------------------------------




--------------------------------------- Iteration      1(  10)  ---------------------------------------


    POTLOK:  cpu time    3.6710: real time    3.6928
    SETDIJ:  cpu time    0.1284: real time    0.1284
    EDDIAG:  cpu time    9.0415: real time    9.0419
  RMM-DIIS:  cpu time   28.6766: real time   28.6779
    ORTHCH:  cpu time    1.0535: real time    1.0536
       DOS:  cpu time    0.0224: real time    0.0224
    CHARGE:  cpu time    3.1115: real time    3.1117
    MIXING:  cpu time    0.0057: real time    0.0057
    --------------------------------------------
      LOOP:  cpu time   45.7105: real time   45.7344

 eigenvalue-minimisations  : 20003
 total energy-change (2. order) : 0.1589448E+01  (-0.3514969E+00)
 number of electron     400.0000006 magnetization 
 augmentation part      113.1686395 magnetization 

 Broyden mixing:
  rms(total) = 0.83831E+00    rms(broyden)= 0.83825E+00
  rms(prec ) = 0.11582E+01
  weight for this iteration     100.00

 eigenvalues of (default mixing * dielectric matrix)
  average eigenvalue GAMMA=   1.0089
  2.6139  1.3355  0.5644  0.3952  0.1354

 Free energy of the ion-electron system (eV)
  ---------------------------------------------------
  alpha Z        PSCENC =      1298.95982110
  Ewald energy   TEWEN  =    156327.62398613
  -Hartree energ DENC   =   -184726.98596866
  -exchange      EXHF   =         0.00000000
  -V(xc)+E(xc)   XCENC  =       209.89750580
  PAW double counting   =     21439.90734891   -20498.91742762
  entropy T*S    EENTRO =        -0.06152182
  eigenvalues    EBANDS =     -1812.26521574
  atomic energy  EATOM  =     27507.58070796
  Solvation  Ediel_sol  =         0.00000000
  ---------------------------------------------------
  free energy    TOTEN  =      -254.26076393 eV

  energy without entropy =     -254.19924212  energy(sigma->0) =     -254.24538348


--------------------------------------------------------------------------------------------------------




--------------------------------------- Iteration      1(  11)  ---------------------------------------


    POTLOK:  cpu time    3.6809: real time    3.6885
    SETDIJ:  cpu time    0.1290: real time    0.1290
    EDDIAG:  cpu time    9.0691: real time    9.0696
  RMM-DIIS:  cpu time   24.3775: real time   24.3787
    ORTHCH:  cpu time    1.0456: real time    1.0456
       DOS:  cpu time    0.0235: real time    0.0235
    CHARGE:  cpu time    3.1045: real time    3.1047
    MIXING:  cpu time    0.0055: real time    0.0055
    --------------------------------------------
      LOOP:  cpu time   41.4355: real time   41.4450

 eigenvalue-minimisations  : 17131
 total energy-change (2. order) : 0.6727898E+00  (-0.1480086E+00)
 number of electron     400.0000006 magnetization 
 augmentation part      113.4392601 magnetization 

 Broyden mixing:
  rms(total) = 0.39591E+00    rms(broyden)= 0.39582E+00
  rms(prec ) = 0.45963E+00
  weight for this iteration     100.00

 eigenvalues of (default mixing * dielectric matrix)
  average eigenvalue GAMMA=   1.1309
  2.9559  1.9314  0.8464  0.1354  0.4006  0.5156

 Free energy of the ion-electron system (eV)
  ---------------------------------------------------
  alpha Z        PSCENC =      1298.95982110
  Ewald energy   TEWEN  =    156327.62398613
  -Hartree energ DENC   =   -184799.76933285
  -exchange      EXHF   =         0.00000000
  -V(xc)+E(xc)   XCENC  =       210.26611118
  PAW double counting   =     21592.33706760   -20639.70936548
  entropy T*S    EENTRO =        -0.03540957
  eigenvalues    EBANDS =     -1750.84156018
  atomic energy  EATOM  =     27507.58070796
  Solvation  Ediel_sol  =         0.00000000
  ---------------------------------------------------
  free energy    TOTEN  =      -253.58797410 eV

  energy without entropy =     -253.55256452  energy(sigma->0) =     -253.57912170


--------------------------------------------------------------------------------------------------------




--------------------------------------- Iteration      1(  12)  ---------------------------------------


    POTLOK:  cpu time    3.6678: real time    3.6909
    SETDIJ:  cpu time    0.1276: real time    0.1276
    EDDIAG:  cpu time    9.0550: real time    9.0555
  RMM-DIIS:  cpu time   23.9541: real time   23.9553
    ORTHCH:  cpu time    1.0565: real time    1.0566
       DOS:  cpu time    0.0228: real time    0.0228
    CHARGE:  cpu time    3.1216: real time    3.1218
    MIXING:  cpu time    0.0057: real time    0.0057
    --------------------------------------------
      LOOP:  cpu time   41.0111: real time   41.0361

 eigenvalue-minimisations  : 16923
 total energy-change (2. order) : 0.1043970E+00  (-0.8089272E-01)
 number of electron     400.0000006 magnetization 
 augmentation part      113.8679298 magnetization 

 Broyden mixing:
  rms(total) = 0.26911E+00    rms(broyden)= 0.26910E+00
  rms(prec ) = 0.30588E+00
  weight for this iteration     100.00

 eigenvalues of (default mixing * dielectric matrix)
  average eigenvalue GAMMA=   1.1554
  3.2189  2.1255  0.1354  0.8602  0.8602  0.4083  0.4793

 Free energy of the ion-electron system (eV)
  ---------------------------------------------------
  alpha Z        PSCENC =      1298.95982110
  Ewald energy   TEWEN  =    156327.62398613
  -Hartree energ DENC   =   -184852.78844573
  -exchange      EXHF   =         0.00000000
  -V(xc)+E(xc)   XCENC  =       210.53479602
  PAW double counting   =     21721.45404397   -20764.12400091
  entropy T*S    EENTRO =        -0.03684487
  eigenvalues    EBANDS =     -1702.68764079
  atomic energy  EATOM  =     27507.58070796
  Solvation  Ediel_sol  =         0.00000000
  ---------------------------------------------------
  free energy    TOTEN  =      -253.48357712 eV

  energy without entropy =     -253.44673225  energy(sigma->0) =     -253.47436591


--------------------------------------------------------------------------------------------------------




--------------------------------------- Iteration      1(  13)  ---------------------------------------


    POTLOK:  cpu time    3.6772: real time    3.7098
    SETDIJ:  cpu time    0.1276: real time    0.1276
    EDDIAG:  cpu time    9.0468: real time    9.0472
  RMM-DIIS:  cpu time   27.3747: real time   27.3761
    ORTHCH:  cpu time    1.0566: real time    1.0567
       DOS:  cpu time    0.0229: real time    0.0229
    CHARGE:  cpu time    3.1202: real time    3.1204
    MIXING:  cpu time    0.0058: real time    0.0058
    --------------------------------------------
      LOOP:  cpu time   44.4318: real time   44.4665

 eigenvalue-minimisations  : 19301
 total energy-change (2. order) : 0.2054980E-01  (-0.2477723E-01)
 number of electron     400.0000006 magnetization 
 augmentation part      114.0885455 magnetization 

 Broyden mixing:
  rms(total) = 0.19958E+00    rms(broyden)= 0.19957E+00
  rms(prec ) = 0.21664E+00
  weight for this iteration     100.00

 eigenvalues of (default mixing * dielectric matrix)
  average eigenvalue GAMMA=   1.2254
  2.9517  2.9517  1.4617  0.8840  0.1354  0.4001  0.5302  0.4886

 Free energy of the ion-electron system (eV)
  ---------------------------------------------------
  alpha Z        PSCENC =      1298.95982110
  Ewald energy   TEWEN  =    156327.62398613
  -Hartree energ DENC   =   -184874.00658106
  -exchange      EXHF   =         0.00000000
  -V(xc)+E(xc)   XCENC  =       210.78451037
  PAW double counting   =     21765.83723710   -20805.84312440
  entropy T*S    EENTRO =        -0.03786126
  eigenvalues    EBANDS =     -1684.36172326
  atomic energy  EATOM  =     27507.58070796
  Solvation  Ediel_sol  =         0.00000000
  ---------------------------------------------------
  free energy    TOTEN  =      -253.46302732 eV

  energy without entropy =     -253.42516606  energy(sigma->0) =     -253.45356200


--------------------------------------------------------------------------------------------------------




--------------------------------------- Iteration      1(  14)  ---------------------------------------


    POTLOK:  cpu time    3.6714: real time    3.6921
    SETDIJ:  cpu time    0.1276: real time    0.1276
    EDDIAG:  cpu time    9.0438: real time    9.0442
  RMM-DIIS:  cpu time   23.6589: real time   23.6601
    ORTHCH:  cpu time    1.0433: real time    1.0433
       DOS:  cpu time    0.0229: real time    0.0229
    CHARGE:  cpu time    3.1112: real time    3.1113
    MIXING:  cpu time    0.0059: real time    0.0059
    --------------------------------------------
      LOOP:  cpu time   40.6849: real time   40.7074

 eigenvalue-minimisations  : 16556
 total energy-change (2. order) : 0.1238445E-01  (-0.8243476E-02)
 number of electron     400.0000006 magnetization 
 augmentation part      114.1435399 magnetization 

 Broyden mixing:
  rms(total) = 0.13034E+00    rms(broyden)= 0.13033E+00
  rms(prec ) = 0.15282E+00
  weight for this iteration     100.00

 eigenvalues of (default mixing * dielectric matrix)
  average eigenvalue GAMMA=   1.3449
  3.5573  3.5573  1.6259  0.9999  0.1354  0.8068  0.5634  0.4044  0.4540

 Free energy of the ion-electron system (eV)
  ---------------------------------------------------
  alpha Z        PSCENC =      1298.95982110
  Ewald energy   TEWEN  =    156327.62398613
  -Hartree energ DENC   =   -184899.98129409
  -exchange      EXHF   =         0.00000000
  -V(xc)+E(xc)   XCENC  =       211.22678179
  PAW double counting   =     21787.42816760   -20824.10322778
  entropy T*S    EENTRO =        -0.03679624
  eigenvalues    EBANDS =     -1662.14878934
  atomic energy  EATOM  =     27507.58070796
  Solvation  Ediel_sol  =         0.00000000
  ---------------------------------------------------
  free energy    TOTEN  =      -253.45064287 eV

  energy without entropy =     -253.41384662  energy(sigma->0) =     -253.44144381


--------------------------------------------------------------------------------------------------------




--------------------------------------- Iteration      1(  15)  ---------------------------------------


    POTLOK:  cpu time    3.6762: real time    3.6891
    SETDIJ:  cpu time    0.1275: real time    0.1274
    EDDIAG:  cpu time    9.0436: real time    9.0440
  RMM-DIIS:  cpu time   23.4971: real time   23.4983
    ORTHCH:  cpu time    1.0469: real time    1.0469
       DOS:  cpu time    0.0233: real time    0.0233
    CHARGE:  cpu time    3.1126: real time    3.1128
    MIXING:  cpu time    0.0061: real time    0.0061
    --------------------------------------------
      LOOP:  cpu time   40.5331: real time   40.5478

 eigenvalue-minimisations  : 16391
 total energy-change (2. order) : 0.1225749E-01  (-0.7119839E-02)
 number of electron     400.0000006 magnetization 
 augmentation part      114.0855172 magnetization 

 Broyden mixing:
  rms(total) = 0.83382E-01    rms(broyden)= 0.83375E-01
  rms(prec ) = 0.10191E+00
  weight for this iteration     100.00

 eigenvalues of (default mixing * dielectric matrix)
  average eigenvalue GAMMA=   1.3513
  3.7943  3.7943  1.6704  1.1258  0.9833  0.1354  0.5766  0.5766  0.4045  0.4513

 Free energy of the ion-electron system (eV)
  ---------------------------------------------------
  alpha Z        PSCENC =      1298.95982110
  Ewald energy   TEWEN  =    156327.62398613
  -Hartree energ DENC   =   -184930.24754269
  -exchange      EXHF   =         0.00000000
  -V(xc)+E(xc)   XCENC  =       211.77119288
  PAW double counting   =     21801.31866955   -20834.64904619
  entropy T*S    EENTRO =        -0.03915320
  eigenvalues    EBANDS =     -1635.75702093
  atomic energy  EATOM  =     27507.58070796
  Solvation  Ediel_sol  =         0.00000000
  ---------------------------------------------------
  free energy    TOTEN  =      -253.43838538 eV

  energy without entropy =     -253.39923218  energy(sigma->0) =     -253.42859708


--------------------------------------------------------------------------------------------------------




--------------------------------------- Iteration      1(  16)  ---------------------------------------


    POTLOK:  cpu time    3.6799: real time    3.6931
    SETDIJ:  cpu time    0.1285: real time    0.1286
    EDDIAG:  cpu time    9.0683: real time    9.0687
  RMM-DIIS:  cpu time   25.9687: real time   25.9701
    ORTHCH:  cpu time    1.0534: real time    1.0534
       DOS:  cpu time    0.0238: real time    0.0238
    CHARGE:  cpu time    3.1290: real time    3.1291
[...]


 soft charge-density along one line, spin component           1
         0         1         2         3         4         5         6         7         8         9
 total charge-density along one line
 
 pseudopotential strength for first ion, spin component:           1
-10.499   0.001   0.001  -0.010  -0.000   0.141  -0.000  -0.000
  0.001 -10.388   0.001  -0.001  -0.012  -0.000   0.127  -0.000
  0.001   0.001 -10.377   0.000  -0.001  -0.000  -0.000   0.125
 -0.010  -0.001   0.000 -10.386   0.001   0.001   0.000  -0.000
 -0.000  -0.012  -0.001   0.001 -10.499   0.000   0.001   0.000
  0.141  -0.000  -0.000   0.001   0.000   0.181   0.000   0.000
 -0.000   0.127  -0.000   0.000   0.001   0.000   0.183   0.000
 -0.000  -0.000   0.125  -0.000   0.000   0.000   0.000   0.183
  0.001   0.000  -0.000   0.127  -0.000  -0.000  -0.000   0.000
  0.000   0.001   0.000  -0.000   0.141  -0.000  -0.000  -0.000
  0.000  -0.001  -0.034  -0.000  -0.000  -0.000   0.000   0.003
 -0.000   0.000   0.002   0.000   0.000   0.000  -0.000  -0.000
  0.000  -0.002   0.000  -0.000   0.001  -0.000   0.001  -0.000
 -0.000  -0.000  -0.005   0.000   0.000  -0.000   0.000   0.001
  0.000  -0.000  -0.000  -0.002   0.000   0.000  -0.000   0.000
 -0.000   0.004  -0.000  -0.000  -0.000   0.000  -0.001   0.000
 -0.000   0.000   0.005  -0.000  -0.000   0.000  -0.000  -0.001
 -0.000  -0.000   0.000   0.004  -0.000  -0.000   0.000  -0.000
 total augmentation occupancy for first ion, spin component:           1
  1.649   0.002   0.002  -0.053  -0.000   0.127  -0.001  -0.001   0.037   0.000   0.001   0.001   0.000   0.000   0.001   0.000
  0.002   1.833   0.001  -0.001  -0.056  -0.001  -0.021  -0.001   0.000   0.042   0.000  -0.002  -0.010  -0.000   0.000  -0.000
  0.002   0.001   1.771   0.000  -0.002  -0.001  -0.001   0.030   0.000   0.001   0.047  -0.007   0.001   0.033   0.000   0.000
 -0.053  -0.001   0.000   1.834   0.001   0.040   0.000   0.000  -0.022  -0.000  -0.000  -0.001   0.001   0.001  -0.010  -0.000
 -0.000  -0.056  -0.002   0.001   1.648   0.000   0.039   0.001  -0.000   0.128  -0.002  -0.001   0.000   0.000  -0.000   0.000
  0.127  -0.001  -0.001   0.040   0.000   0.209   0.001   0.000   0.004  -0.000  -0.000  -0.000  -0.000  -0.000   0.011  -0.000
 -0.001  -0.021  -0.001   0.000   0.039   0.001   0.179   0.000  -0.000   0.003  -0.001   0.000   0.056   0.000  -0.000  -0.003
 -0.001  -0.001   0.030   0.000   0.001   0.000   0.000   0.235   0.000  -0.000  -0.169   0.029  -0.000   0.085  -0.000   0.000
  0.037   0.000   0.000  -0.022  -0.000   0.004  -0.000   0.000   0.180   0.000  -0.000   0.000  -0.000  -0.001   0.056   0.000
  0.000   0.042   0.001  -0.000   0.128  -0.000   0.003  -0.000   0.000   0.208   0.001   0.000   0.012  -0.000   0.000  -0.000
  0.001   0.000   0.047  -0.000  -0.002  -0.000  -0.001  -0.169  -0.000   0.001   1.129  -0.293   0.000   0.064  -0.000  -0.000
  0.001  -0.002  -0.007  -0.001  -0.001  -0.000   0.000   0.029   0.000   0.000  -0.293   0.124   0.000  -0.054  -0.000   0.000
  0.000  -0.010   0.001   0.001   0.000  -0.000   0.056  -0.000  -0.000   0.012   0.000   0.000   0.174  -0.000  -0.000  -0.007
  0.000  -0.000   0.033   0.001   0.000  -0.000   0.000   0.085  -0.001  -0.000   0.064  -0.054  -0.000   0.096  -0.000   0.000
  0.001   0.000   0.000  -0.010  -0.000   0.011  -0.000  -0.000   0.056   0.000  -0.000  -0.000  -0.000  -0.000   0.173   0.000
  0.000  -0.000   0.000  -0.000   0.000  -0.000  -0.003   0.000   0.000  -0.000  -0.000   0.000  -0.007   0.000   0.000   0.000
 -0.000  -0.000  -0.007   0.000   0.000  -0.000  -0.000  -0.003  -0.000   0.000  -0.005   0.003   0.000  -0.004   0.000  -0.000
  0.000  -0.000  -0.000  -0.000   0.000  -0.000   0.000   0.000  -0.003  -0.000   0.000   0.000   0.000   0.000  -0.007   0.000


------------------------ aborting loop because EDIFF is reached ----------------------------------------


    CHARGE:  cpu time    3.3219: real time    3.3221
    FORLOC:  cpu time    0.0864: real time    0.0864
    FORNL :  cpu time   13.2312: real time   13.2319
    FORCOR:  cpu time    3.8392: real time    3.8394
    FORHAR:  cpu time    0.1000: real time    0.1000
    MIXING:  cpu time    0.0264: real time    0.0264
    OFIELD:  cpu time    0.0001: real time    0.0001

 VOLUME and BASIS-vectors are now :
 -----------------------------------------------------------------------------
  energy-cutoff  :      396.00
  volume of cell :     1665.84
      direct lattice vectors                 reciprocal lattice vectors
     8.455582619  0.000000000  0.000000000     0.118265062 -0.068280376  0.000000000
     4.227791797  7.322749070  0.000000000     0.000000000  0.136560736  0.000000000
     0.000000000  0.000000000 26.903955460     0.000000000  0.000000000  0.037169256

  length of vectors
     8.455582619  8.455582619 26.903955460     0.136560736  0.136560736  0.037169256


 FORCES acting on ions
    electron-ion (+dipol)            ewald-force                    non-local-force                 convergence-correction
 -----------------------------------------------------------------------------------------------
   -.293E+00 -.412E+00 0.272E+04   0.296E+00 0.415E+00 -.272E+04   -.410E-02 -.874E-02 0.123E+00   -.751E-05 -.982E-04 0.114E-02
   -.269E+00 -.216E+00 0.272E+04   0.318E+00 0.214E+00 -.272E+04   -.199E-02 0.811E-02 0.144E+00   0.194E-04 -.781E-04 0.112E-02
   0.626E+00 0.181E+00 0.272E+04   -.618E+00 -.252E+00 -.272E+04   -.199E-01 0.531E-01 0.186E+00   -.166E-04 -.734E-05 0.103E-02
   -.813E-01 0.633E-01 0.272E+04   0.118E+00 -.851E-01 -.272E+04   0.105E-02 0.652E-02 0.133E+00   0.371E-04 0.503E-04 0.106E-02
   0.542E+00 0.622E+00 0.272E+04   -.549E+00 -.582E+00 -.272E+04   0.843E-02 -.488E-01 0.208E+00   0.634E-04 0.588E-04 0.104E-02
   -.403E+00 -.324E-01 0.272E+04   0.426E+00 0.151E-01 -.272E+04   -.286E-01 -.577E-02 0.165E+00   -.107E-03 0.507E-04 0.107E-02
   0.651E+00 0.174E+00 0.272E+04   -.633E+00 -.200E+00 -.272E+04   -.812E-02 0.723E-02 0.155E+00   0.473E-04 -.105E-06 0.109E-02
   -.423E+00 -.287E+00 0.272E+04   0.442E+00 0.248E+00 -.272E+04   -.122E-01 0.112E-01 0.133E+00   -.117E-04 -.272E-04 0.117E-02
   -.161E+00 -.232E+00 0.272E+04   0.188E+00 0.235E+00 -.272E+04   -.453E-02 0.105E-01 0.138E+00   -.343E-04 0.402E-04 0.108E-02
   -.232E+01 -.263E+01 0.110E+04   0.237E+01 0.269E+01 -.110E+04   -.673E-01 0.312E-01 0.347E-01   0.412E-04 -.145E-03 0.513E-03
   0.661E+01 0.420E+01 0.109E+04   -.657E+01 -.420E+01 -.109E+04   -.108E+00 -.106E-01 -.863E-02   -.984E-04 -.408E-04 0.912E-03
   -.289E+01 -.203E+01 0.110E+04   0.284E+01 0.198E+01 -.110E+04   0.358E-01 0.671E-01 -.470E-01   0.157E-04 0.679E-04 0.681E-03
   0.473E+01 0.294E+01 0.110E+04   -.471E+01 -.304E+01 -.110E+04   -.814E-01 0.455E-01 0.237E-01   0.142E-03 0.543E-04 0.611E-03
   -.210E+01 -.720E+00 0.110E+04   0.206E+01 0.669E+00 -.110E+04   0.117E-01 0.707E-01 -.679E-01   -.599E-05 0.534E-04 0.617E-03
   -.169E+01 -.810E-02 0.110E+04   0.176E+01 0.148E-01 -.110E+04   -.467E-01 0.272E-01 0.408E-01   -.124E-03 -.230E-04 0.420E-03
   0.325E-01 -.168E+01 0.110E+04   -.299E-01 0.167E+01 -.110E+04   -.883E-02 0.344E-01 -.674E-01   0.722E-04 -.543E-04 0.475E-03
   -.355E+01 -.355E+01 0.110E+04   0.367E+01 0.357E+01 -.110E+04   -.687E-01 0.141E-01 0.213E-01   -.136E-03 0.748E-04 0.464E-03
   0.485E+01 0.903E+00 0.109E+04   -.491E+01 -.823E+00 -.109E+04   -.448E-01 -.435E-01 0.636E-01   0.529E-04 0.204E-04 0.657E-03
   -.276E+01 0.668E+01 -.552E+03   0.244E+01 -.650E+01 0.552E+03   0.331E+00 -.191E+00 -.839E-01   0.164E-02 -.929E-03 0.243E-02
   0.720E+01 0.709E+01 -.506E+03   -.727E+01 -.715E+01 0.506E+03   0.610E-01 0.558E-01 0.289E+00   0.396E-03 0.268E-03 0.315E-02
   -.503E+01 0.591E+01 -.540E+03   0.536E+01 -.569E+01 0.540E+03   -.352E+00 -.240E+00 -.994E-01   -.179E-02 -.558E-03 0.301E-02
   -.183E+00 0.109E+01 -.509E+03   0.143E+00 -.118E+01 0.509E+03   0.480E-01 0.857E-01 0.151E+00   -.473E-03 -.703E-04 0.340E-02
   0.150E+01 -.502E+01 -.523E+03   -.117E+01 0.517E+01 0.523E+03   -.348E+00 -.174E+00 -.453E-01   -.120E-02 -.134E-02 0.330E-02
   -.426E+00 0.282E+00 -.542E+03   0.193E+00 -.388E+00 0.542E+03   0.252E+00 0.116E+00 -.578E-01   0.168E-02 0.118E-02 0.283E-02
   -.265E+01 -.374E+01 -.523E+03   0.274E+01 0.381E+01 0.523E+03   -.800E-01 -.703E-01 0.142E+00   0.292E-03 0.211E-03 0.355E-02
   0.735E+00 -.828E+01 -.557E+03   -.722E+00 0.790E+01 0.557E+03   -.793E-02 0.387E+00 -.183E+00   0.238E-03 0.189E-02 0.201E-02
   0.214E+01 -.345E+01 -.516E+03   -.222E+01 0.348E+01 0.516E+03   0.838E-01 -.255E-01 0.168E+00   -.449E-03 -.668E-03 0.354E-02
   -.648E+02 0.997E+02 -.208E+04   0.651E+02 -.996E+02 0.208E+04   -.289E+00 -.176E-01 -.208E+01   0.666E-03 -.693E-04 -.918E-03
   -.292E+02 0.228E+02 -.214E+04   0.292E+02 -.230E+02 0.214E+04   0.717E-01 0.149E+00 -.163E+00   -.432E-03 0.445E-03 -.122E-02
   0.662E+02 0.513E+02 -.205E+04   -.666E+02 -.518E+02 0.205E+04   0.344E+00 0.454E+00 0.404E+00   0.117E-03 0.318E-03 -.199E-02
   0.391E+02 -.258E+02 -.213E+04   -.392E+02 0.260E+02 0.213E+04   0.155E+00 -.218E+00 -.199E-01   0.502E-03 -.712E-03 -.130E-02
   0.252E+02 -.127E+03 -.207E+04   -.255E+02 0.127E+03 0.207E+04   0.295E+00 0.334E-01 -.215E+01   0.950E-04 0.104E-02 -.352E-03
   -.550E+02 -.547E+02 -.209E+04   0.552E+02 0.551E+02 0.208E+04   -.150E+00 -.343E+00 0.378E+00   -.850E-03 -.206E-03 -.139E-02
   0.101E+02 0.463E+02 -.216E+04   -.101E+02 -.463E+02 0.216E+04   -.265E-01 -.182E-01 -.157E+00   -.379E-03 0.635E-03 -.168E-02
   -.129E+02 0.522E+01 -.218E+04   0.128E+02 -.508E+01 0.218E+04   0.483E-01 -.145E+00 -.397E+00   0.298E-03 0.266E-04 -.148E-02
   0.599E+00 -.169E+02 -.219E+04   -.734E+00 0.169E+02 0.219E+04   0.137E+00 -.241E-01 -.286E+00   -.680E-04 -.852E-03 -.142E-02
   0.923E+02 -.415E+02 -.104E+04   -.923E+02 0.413E+02 0.104E+04   -.296E-01 0.194E+00 -.178E+00   -.422E-04 -.250E-04 -.192E-03
   0.135E+03 -.540E+02 -.103E+04   -.136E+03 0.541E+02 0.103E+04   0.904E+00 -.839E-01 0.219E-01   -.162E-03 -.283E-03 -.136E-03
   0.802E+01 -.121E+03 -.104E+04   -.853E+01 0.121E+03 0.104E+04   0.507E+00 -.656E-01 -.117E+01   -.208E-03 -.176E-05 -.263E-03
   -.641E+02 0.218E+02 -.102E+04   0.640E+02 -.222E+02 0.102E+04   0.407E-01 0.450E+00 -.962E+00   0.576E-04 0.137E-03 -.249E-03
   -.169E+02 0.157E+03 -.103E+04   0.167E+02 -.158E+03 0.103E+04   0.243E+00 0.815E+00 0.242E-01   -.210E-03 -.101E-03 -.657E-04
   -.951E+00 0.792E+02 -.105E+04   0.765E+00 -.792E+02 0.105E+04   0.200E+00 -.949E-01 -.156E+00   -.339E-03 -.889E-04 0.224E-04
   0.632E+02 0.126E+02 -.257E+03   -.681E+02 -.141E+02 0.259E+03   0.492E+01 0.149E+01 -.210E+01   0.913E-05 0.195E-05 -.538E-04
   -.507E+01 -.566E+02 -.267E+03   0.664E+01 0.611E+02 0.269E+03   -.156E+01 -.442E+01 -.294E+01   -.331E-04 -.256E-04 -.401E-04
   0.493E+02 -.518E+02 -.263E+03   -.528E+02 0.562E+02 0.262E+03   0.352E+01 -.434E+01 0.447E+00   -.407E-04 -.355E-04 -.236E-04
   0.499E+02 0.381E+02 -.244E+03   -.524E+02 -.421E+02 0.241E+03   0.252E+01 0.407E+01 0.261E+01   -.996E-05 -.125E-04 0.198E-04
   -.202E+02 -.727E+02 -.287E+03   0.223E+02 0.775E+02 0.289E+03   -.206E+01 -.480E+01 -.201E+01   -.642E-04 -.601E-05 -.656E-04
   0.412E+02 0.542E+02 -.241E+03   -.452E+02 -.568E+02 0.238E+03   0.399E+01 0.270E+01 0.291E+01   -.135E-03 -.565E-04 -.849E-04
   -.441E+02 0.609E+02 -.267E+03   0.481E+02 -.647E+02 0.268E+03   -.405E+01 0.380E+01 -.718E+00   0.938E-04 -.128E-03 -.184E-06
   -.450E+02 -.653E+01 -.270E+03   0.491E+02 0.808E+01 0.273E+03   -.417E+01 -.158E+01 -.335E+01   -.582E-04 -.942E-05 -.405E-04
   0.253E+02 0.583E+02 -.257E+03   -.275E+02 -.627E+02 0.259E+03   0.228E+01 0.441E+01 -.252E+01   -.144E-04 0.368E-04 -.628E-04
   -.140E+03 -.391E+02 -.109E+04   0.141E+03 0.389E+02 0.109E+04   -.533E+00 0.117E+00 0.590E+00   0.995E-04 0.917E-04 -.738E-04
   -.206E+02 -.249E+02 -.301E+03   0.200E+02 0.263E+02 0.307E+03   0.636E+00 -.142E+01 -.517E+01   0.230E-04 0.199E-05 -.135E-03
   -.551E+02 0.363E+02 -.269E+03   0.591E+02 -.403E+02 0.269E+03   -.396E+01 0.398E+01 0.224E+00   -.583E-04 0.816E-04 -.226E-04
   -.369E+02 -.501E+02 -.257E+03   0.389E+02 0.545E+02 0.255E+03   -.200E+01 -.444E+01 0.251E+01   0.166E-05 -.692E-04 0.187E-04
 -----------------------------------------------------------------------------------------------
   -.153E+01 -.849E+00 0.147E+02   0.234E-12 0.497E-13 -.327E-11   0.153E+01 0.852E+00 -.147E+02   -.865E-03 0.117E-03 0.292E-01
 
 
 POSITION                                       TOTAL-FORCE (eV/Angst)
 -----------------------------------------------------------------------------------
      0.00000      0.00000     10.00000        -0.001373     -0.005585     -0.188959
      2.81853      0.00000     10.00000         0.047423      0.005683     -0.168572
      5.63706      0.00000     10.00000        -0.012161     -0.018055     -0.263272
      1.40926      2.44092     10.00000         0.037417     -0.015255     -0.185486
      4.22779      2.44092     10.00000         0.001364     -0.008709     -0.275080
      7.04632      2.44092     10.00000        -0.006012     -0.023053     -0.171886
      2.81853      4.88183     10.00000         0.009985     -0.018978     -0.190834
      5.63706      4.88183     10.00000         0.007412     -0.028340     -0.198811
      8.45558      4.88183     10.00000         0.022136      0.012801     -0.200536
      1.40926      0.81364     12.30132        -0.014748      0.097163      0.356593
      4.22779      0.81364     12.30132        -0.061751     -0.010091      0.102515
      7.04632      0.81364     12.30132        -0.014944      0.014929      0.048174
      2.81853      3.25455     12.30132        -0.056965     -0.055624      0.196057
      5.63705      3.25455     12.30132        -0.030816      0.019405      0.010646
      8.45558      3.25455     12.30132         0.024209      0.033799      0.429196
      4.22779      5.69547     12.30132        -0.006144      0.029972      0.068495
      7.04632      5.69547     12.30132         0.048958      0.033040      0.320728
      9.86485      5.69547     12.30132        -0.105044      0.035996      0.196915
      2.75958      1.66103     14.63812         0.010235     -0.006248      0.031703
      5.59767      1.63813     14.56758        -0.010889     -0.012018      0.017642
      8.44996      1.66691     14.63192        -0.021579     -0.012853      0.030667
      4.19752      4.08460     14.57616         0.007197     -0.005213      0.021322
      7.03248      4.10162     14.61128        -0.022115     -0.022194      0.021044
      9.82237      4.08238     14.63618         0.020445      0.011781      0.001952
      5.60863      6.53889     14.59250         0.006308     -0.002532      0.007948
      8.41799      6.50209     14.64428         0.004912      0.003902      0.040883
     11.24456      6.53900     14.58059         0.003398      0.006313      0.021035
      9.79425      2.52883     17.22495         0.000881     -0.004798      0.001393
      4.15147      2.47290     16.91071         0.004317     -0.007422      0.002733
      6.94755      2.45483     16.87028        -0.018530     -0.016223     -0.012901
      5.55891      4.93297     16.89347        -0.009370      0.013603      0.004995
      8.37152      4.88735     17.14018        -0.004790     -0.021637     -0.014683
     11.21133      4.94190     16.88092         0.008500      0.005402     -0.028719
      8.39123      0.05165     16.92179         0.006272     -0.015766      0.017117
      2.74017      0.05222     16.94996        -0.016297     -0.008801      0.006196
      5.55356      0.03387     16.92548         0.001191     -0.003187      0.014248
      7.34370      3.55516     21.29984         0.005486      0.020336      0.006826
      7.14271      3.96681     19.82032         0.033016      0.019298     -0.002634
      8.49797      4.28994     19.19292         0.003652      0.007284      0.009057
      9.50497      3.15679     19.29823         0.000921     -0.015417      0.004293
      8.95725      1.94628     20.07476        -0.006976      0.021007      0.003304
      8.38186      2.40788     21.44490         0.012818     -0.038040      0.018984
      6.36623      3.25381     21.71141         0.012240     -0.001889     -0.007826
      7.66512      4.43805     21.87830         0.013136     -0.007402     -0.021226
      6.45617      4.82519     19.74205         0.026271      0.023040      0.009058
      6.65304      3.12994     19.28583         0.007231      0.014543     -0.001892
      8.91051      5.22757     19.60555         0.020835      0.015994     -0.004215
      8.16372      1.43360     19.50874        -0.006791      0.018586     -0.012453
      1.30565      1.20855     20.22717        -0.001253     -0.011639     -0.014090
      9.21044      2.73021     22.09440        -0.012492     -0.028717      0.004960
      7.92606      1.53354     21.93657         0.004120     -0.000726     -0.027824
      2.38968      3.62444     19.87558         0.013919     -0.010922      0.003419
     10.69656      3.90946     20.93560         0.014822     -0.017232     -0.004791
      3.15929      2.83890     19.83586        -0.004652     -0.006629     -0.025608
      2.77603      4.51875     19.35470         0.004666     -0.002679     -0.007800
 -----------------------------------------------------------------------------------
    total drift:                                0.001536      0.002665      0.005607


--------------------------------------------------------------------------------------------------------



  FREE ENERGIE OF THE ION-ELECTRON SYSTEM (eV)
  ---------------------------------------------------
  free  energy   TOTEN  =      -253.45017704 eV

  energy  without entropy=     -253.41056342  energy(sigma->0) =     -253.44027363
 
 d Force = 0.6243169E-03[ 0.498E-03, 0.751E-03]  d Energy = 0.6284683E-03-0.415E-05
 d Force = 0.5886161E+01[ 0.589E+01, 0.589E+01]  d Ewald  = 0.5886160E+01 0.932E-06


--------------------------------------------------------------------------------------------------------


    POTLOK:  cpu time    3.8060: real time    3.8062


--------------------------------------------------------------------------------------------------------


 Conjugate gradient step on ions:
 trial-energy change:   -0.000628  1 .order   -0.000624   -0.000751   -0.000498
  (g-gl).g = 0.430E-03      g.g   = 0.386E-03  gl.gl    = 0.173E-02
 g(Force)  = 0.386E-03   g(Stress)= 0.000E+00 ortho     =-0.629E-04
 gamma     =   0.24946
 trial     =   2.02613
 opt step  =   5.20524  (harmonic =   6.00866) maximal distance =0.00257977
 next E    =  -253.450584   (d E  =  -0.00103)


--------------------------------------------------------------------------------------------------------


  
 reached required accuracy - stopping structural energy minimisation
     LOOP+:  cpu time  386.3499: real time  386.6045
    4ORBIT:  cpu time    0.0000: real time    0.0000

 total amount of memory used by VASP MPI-rank0   126973. kBytes
=======================================================================

   base      :      30000. kBytes
   nonlr-proj:      11444. kBytes
   fftplans  :      13445. kBytes
   grid      :       9308. kBytes
   one-center:        108. kBytes
   wavefun   :      62668. kBytes
 
  
  
 General timing and accounting informations for this job:
 ========================================================
  
                  Total CPU time used (sec):     3854.817
                            User time (sec):     3817.195
                          System time (sec):       37.622
                         Elapsed time (sec):     3906.923
  
                   Maximum memory used (kb):      370292.
                   Average memory used (kb):           0.
  
                          Minor page faults:        47372
                          Major page faults:            6
                 Voluntary context switches:         3928
