       N       E                     dE             d eps       ncg     rms          rms(c)
DAV:   1     0.354106383963E+04    0.35411E+04   -0.14166E+05 16280   0.116E+03
DAV:   2     0.199186156393E+03   -0.33419E+04   -0.30648E+04 16922   0.446E+02
DAV:   3    -0.222642630306E+03   -0.42183E+03   -0.39201E+03 21272   0.130E+02
DAV:   4    -0.256682230998E+03   -0.34040E+02   -0.30273E+02 23320   0.380E+01
DAV:   5    -0.257928797630E+03   -0.12466E+01   -0.12064E+01 22000   0.619E+00    0.285E+01
RMM:   6    -0.256770127770E+03    0.11587E+01   -0.19402E+01 17928   0.792E+00    0.280E+01
RMM:   7    -0.273634103271E+03   -0.16864E+02   -0.21871E+01 18047   0.772E+00    0.354E+01
RMM:   8    -0.248844333215E+03    0.24790E+02   -0.14525E+01 17672   0.690E+00    0.234E+01
RMM:   9    -0.238942816782E+03    0.99015E+01   -0.65564E+00 16238   0.715E+00    0.141E+01
RMM:  10    -0.235115504852E+03    0.38273E+01   -0.64349E+00 16834   0.579E+00    0.670E+00
RMM:  11    -0.234431387571E+03    0.68412E+00   -0.16773E+00 17101   0.301E+00    0.350E+00
RMM:  12    -0.234465311287E+03   -0.33924E-01   -0.66385E-01 19003   0.162E+00    0.252E+00
RMM:  13    -0.234503501000E+03   -0.38190E-01   -0.16256E-01 19075   0.775E-01    0.199E+00
RMM:  14    -0.234484906029E+03    0.18595E-01   -0.11900E-01 16583   0.687E-01    0.999E-01
RMM:  15    -0.234464571134E+03    0.20335E-01   -0.51314E-02 18513   0.425E-01    0.627E-01
RMM:  16    -0.234466214008E+03   -0.16429E-02   -0.23534E-02 17089   0.269E-01    0.446E-01
RMM:  17    -0.234467551227E+03   -0.13372E-02   -0.12607E-02 17179   0.229E-01    0.309E-01
RMM:  18    -0.234467646216E+03   -0.94989E-04   -0.32228E-03 18638   0.111E-01    0.222E-01
RMM:  19    -0.234468068625E+03   -0.42241E-03   -0.27796E-03 16325   0.110E-01    0.137E-01
RMM:  20    -0.234468628284E+03   -0.55966E-03   -0.21631E-03 16944   0.956E-02    0.805E-02
RMM:  21    -0.234468874168E+03   -0.24588E-03   -0.62727E-04 19059   0.383E-02    0.595E-02
RMM:  22    -0.234469067481E+03   -0.19331E-03   -0.21552E-04 16877   0.289E-02    0.399E-02
RMM:  23    -0.234469612896E+03   -0.54542E-03   -0.48556E-04 16233   0.412E-02    0.266E-02
RMM:  24    -0.234470040631E+03   -0.42773E-03   -0.27923E-04 17300   0.250E-02    0.182E-02
RMM:  25    -0.234470303587E+03   -0.26296E-03   -0.11990E-04 16648   0.169E-02    0.132E-02
RMM:  26    -0.234470556563E+03   -0.25298E-03   -0.11032E-04 16395   0.158E-02    0.754E-03
RMM:  27    -0.234470702566E+03   -0.14600E-03   -0.61123E-05 16494   0.112E-02    0.737E-03
RMM:  28    -0.234470801935E+03   -0.99369E-04   -0.37700E-05 15771   0.849E-03    0.437E-03
RMM:  29    -0.234470870700E+03   -0.68765E-04   -0.28367E-05 14983   0.711E-03    0.241E-03
RMM:  30    -0.234470889202E+03   -0.18502E-04   -0.97641E-06 12883   0.365E-03    0.205E-03
RMM:  31    -0.234470898188E+03   -0.89860E-05   -0.28689E-06 10546   0.262E-03    0.125E-03
RMM:  32    -0.234470903808E+03   -0.56198E-05   -0.32159E-06 10708   0.263E-03    0.926E-04
RMM:  33    -0.234470904679E+03   -0.87107E-06   -0.90120E-07  9404   0.165E-03
   1 F= -.23447090E+03 E0= -.23446242E+03  d E =-.234471E+03
       N       E                     dE             d eps       ncg     rms          rms(c)
DAV:   1    -0.234471688873E+03   -0.78507E-03   -0.39347E-02 16966   0.374E-01    0.213E-02
RMM:   2    -0.234471741432E+03   -0.52559E-04   -0.58095E-04 16275   0.594E-02    0.170E-02
RMM:   3    -0.234471744908E+03   -0.34763E-05   -0.56734E-05 20255   0.194E-02    0.150E-02
RMM:   4    -0.234471741931E+03    0.29772E-05   -0.11592E-05 15969   0.570E-03    0.829E-03
RMM:   5    -0.234471740734E+03    0.11974E-05   -0.72276E-06 13877   0.544E-03    0.421E-03
RMM:   6    -0.234471741124E+03   -0.39060E-06   -0.10634E-06  9098   0.311E-03
   2 F= -.23447174E+03 E0= -.23446326E+03  d E =-.836445E-03
