 vasp.5.4.4.18Apr17-6-g9f103f2a35 (build Sep 11 2020 00:39:59) complex          
  
 executed on           VASP@albus date 2021.05.30  10:31:39
 running on    2 total cores
 distrk:  each k-point on    2 cores,    1 groups
 distr:  one band on NCORES_PER_BAND=   1 cores,    2 groups


--------------------------------------------------------------------------------------------------------


 INCAR:
 POTCAR:   PAW_PBE Pt 05Jan2001                   
 POTCAR:   PAW_PBE C 08Apr2002                    
 POTCAR:   PAW_PBE H 15Jun2001                    

 ----------------------------------------------------------------------------- 
|                                                                             |
|  ADVICE TO THIS USER RUNNING 'VASP/VAMP'   (HEAR YOUR MASTER'S VOICE ...):  |
|                                                                             |
|      You have switched on vdW-DFT.                                          |
|      This routine was written and supplied by Jiri Klimes.                  |
|      We recommed that you carefully read and cite the following             |
|      publication                                                            |
|      J. Klimes, D.R. Bowler, A. Michelides                                  |
|        J. Phys.: Cond Matt. 22 022201 (2010)                                |
|      J. Klimes, D.R. Bowler, A. Michelides                                  |
|        Phys. Rev. B. 83, 195131 (2011)                                      |
|      and references therein.                                                |
|                                                                             |
 ----------------------------------------------------------------------------- 

 POTCAR:   PAW_PBE Pt 05Jan2001                   
   VRHFIN =Pt: s1d9                                                             
   LEXCH  = PE                                                                  
   EATOM  =   729.1171 eV,   53.5886 Ry                                         
                                                                                
   TITEL  = PAW_PBE Pt 05Jan2001                                                
   LULTRA =        F    use ultrasoft PP ?                                      
   IUNSCR =        1    unscreen: 0-lin 1-nonlin 2-no                           
   RPACOR =    2.330    partial core radius                                     
   POMASS =  195.080; ZVAL   =   10.000    mass and valenz                      
   RCORE  =    2.500    outmost cutoff radius                                   
   RWIGS  =    2.750; RWIGS  =    1.455    wigner-seitz radius (au A)           
   ENMAX  =  230.283; ENMIN  =  172.712 eV                                      
   RCLOC  =    1.896    cutoff for local pot                                    
   LCOR   =        T    correct aug charges                                     
   LPAW   =        T    paw PP                                                  
   EAUG   =  358.966                                                            
   DEXC   =    -.039                                                            
   RMAX   =    3.038    core radius for proj-oper                               
   RAUG   =    1.300    factor for augmentation sphere                          
   RDEP   =    2.590    radius for radial grids                                 
   QCUT   =   -4.114; QGAM   =    8.228    optimization parameters              
                                                                                
   Description                                                                  
     l     E      TYP  RCUT    TYP  RCUT                                        
     2   .000     23  2.500                                                     
     2   .000     23  2.500                                                     
     0   .000     23  2.500                                                     
     0   .000     23  2.500                                                     
     1  -.200     23  2.500                                                     
     1  1.500     23  2.500                                                     
     3   .000      7   .000                                                     
  local pseudopotential read in
  partial core-charges read in
  atomic valenz-charges read in
  non local Contribution for L=           2  read in
    real space projection operators read in
  non local Contribution for L=           2  read in
    real space projection operators read in
  non local Contribution for L=           0  read in
    real space projection operators read in
  non local Contribution for L=           0  read in
    real space projection operators read in
  non local Contribution for L=           1  read in
    real space projection operators read in
  non local Contribution for L=           1  read in
    real space projection operators read in
    PAW grid and wavefunctions read in
 
   number of l-projection  operators is LMAX  =           6
   number of lm-projection operators is LMMAX =          18
 
 POTCAR:   PAW_PBE C 08Apr2002                    
   VRHFIN =C: s2p2                                                              
   LEXCH  = PE                                                                  
   EATOM  =   147.1560 eV,   10.8157 Ry                                         
                                                                                
   TITEL  = PAW_PBE C 08Apr2002                                                 
   LULTRA =        F    use ultrasoft PP ?                                      
   IUNSCR =        0    unscreen: 0-lin 1-nonlin 2-no                           
   RPACOR =     .000    partial core radius                                     
   POMASS =   12.011; ZVAL   =    4.000    mass and valenz                      
   RCORE  =    1.500    outmost cutoff radius                                   
   RWIGS  =    1.630; RWIGS  =     .863    wigner-seitz radius (au A)           
   ENMAX  =  400.000; ENMIN  =  300.000 eV                                      
   ICORE  =        2    local potential                                         
   LCOR   =        T    correct aug charges                                     
   LPAW   =        T    paw PP                                                  
   EAUG   =  644.873                                                            
   DEXC   =     .000                                                            
   RMAX   =    2.266    core radius for proj-oper                               
   RAUG   =    1.300    factor for augmentation sphere                          
   RDEP   =    1.501    radius for radial grids                                 
   RDEPT  =    1.300    core radius for aug-charge                              
   QCUT   =   -5.516; QGAM   =   11.032    optimization parameters              
                                                                                
   Description                                                                  
     l     E      TYP  RCUT    TYP  RCUT                                        
     0   .000     23  1.200                                                     
     0   .000     23  1.200                                                     
     1   .000     23  1.500                                                     
     1  2.500     23  1.500                                                     
     2   .000      7  1.500                                                     
  local pseudopotential read in
  atomic valenz-charges read in
  non local Contribution for L=           0  read in
    real space projection operators read in
  non local Contribution for L=           0  read in
    real space projection operators read in
  non local Contribution for L=           1  read in
    real space projection operators read in
  non local Contribution for L=           1  read in
    real space projection operators read in
    PAW grid and wavefunctions read in
 
   number of l-projection  operators is LMAX  =           4
   number of lm-projection operators is LMMAX =           8
 
 POTCAR:   PAW_PBE H 15Jun2001                    
   VRHFIN =H: ultrasoft test                                                    
   LEXCH  = PE                                                                  
   EATOM  =    12.4884 eV,     .9179 Ry                                         
                                                                                
   TITEL  = PAW_PBE H 15Jun2001                                                 
   LULTRA =        F    use ultrasoft PP ?                                      
   IUNSCR =        0    unscreen: 0-lin 1-nonlin 2-no                           
   RPACOR =     .000    partial core radius                                     
   POMASS =    1.000; ZVAL   =    1.000    mass and valenz                      
   RCORE  =    1.100    outmost cutoff radius                                   
   RWIGS  =     .700; RWIGS  =     .370    wigner-seitz radius (au A)           
   ENMAX  =  250.000; ENMIN  =  200.000 eV                                      
   RCLOC  =     .701    cutoff for local pot                                    
   LCOR   =        T    correct aug charges                                     
   LPAW   =        T    paw PP                                                  
   EAUG   =  400.000                                                            
   RMAX   =    2.174    core radius for proj-oper                               
   RAUG   =    1.200    factor for augmentation sphere                          
   RDEP   =    1.112    radius for radial grids                                 
   QCUT   =   -5.749; QGAM   =   11.498    optimization parameters              
                                                                                
   Description                                                                  
     l     E      TYP  RCUT    TYP  RCUT                                        
     0   .000     23  1.100                                                     
     0   .500     23  1.100                                                     
     1  -.300     23  1.100                                                     
  local pseudopotential read in
  atomic valenz-charges read in
  non local Contribution for L=           0  read in
    real space projection operators read in
  non local Contribution for L=           0  read in
    real space projection operators read in
  non local Contribution for L=           1  read in
    real space projection operators read in
    PAW grid and wavefunctions read in
 
   number of l-projection  operators is LMAX  =           3
   number of lm-projection operators is LMMAX =           5
 
 Optimization of the real space projectors (new method)

 maximal supplied QI-value         = 15.12
 optimisation between [QCUT,QGAM] = [ 10.13, 20.26] = [ 28.73,114.92] Ry 
 Optimized for a Real-space Cutoff    1.52 Angstroem

   l    n(q)    QCUT    max X(q) W(low)/X(q) W(high)/X(q)  e(spline) 
   2      8    10.129     3.643    0.62E-04    0.19E-04    0.48E-07
   2      8    10.129    46.462    0.29E-03    0.41E-03    0.31E-06
   0      9    10.129    13.796    0.15E-04    0.14E-04    0.48E-08
   0      9    10.129    57.669    0.22E-03    0.23E-03    0.89E-07
   1      9    10.129     7.440    0.50E-04    0.32E-04    0.34E-07
   1      9    10.129    10.255    0.23E-03    0.57E-04    0.13E-06
 Optimization of the real space projectors (new method)

 maximal supplied QI-value         = 25.13
 optimisation between [QCUT,QGAM] = [ 10.05, 20.36] = [ 28.30,116.06] Ry 
 Optimized for a Real-space Cutoff    1.31 Angstroem

   l    n(q)    QCUT    max X(q) W(low)/X(q) W(high)/X(q)  e(spline) 
   0      8    10.053     5.582    0.38E-04    0.40E-04    0.62E-07
   0      8    10.053    69.432    0.43E-03    0.68E-03    0.18E-06
   1      7    10.053     2.780    0.81E-04    0.10E-03    0.11E-06
   1      7    10.053     4.549    0.23E-03    0.15E-03    0.21E-06
 Optimization of the real space projectors (new method)

 maximal supplied QI-value         = 34.20
 optimisation between [QCUT,QGAM] = [  9.92, 20.18] = [ 27.55,114.04] Ry 
 Optimized for a Real-space Cutoff    1.27 Angstroem

   l    n(q)    QCUT    max X(q) W(low)/X(q) W(high)/X(q)  e(spline) 
   0      8     9.919     4.436    0.78E-04    0.69E-04    0.53E-07
   0      8     9.919    16.131    0.45E-03    0.25E-03    0.29E-06
   1      7     9.919     4.654    0.17E-03    0.70E-03    0.31E-06

 ----------------------------------------------------------------------------- 
|                                                                             |
|  ADVICE TO THIS USER RUNNING 'VASP/VAMP'   (HEAR YOUR MASTER'S VOICE ...):  |
|                                                                             |
|      You enforced a specific xc-type in the INCAR file,                     |
|      a different type was found on the POTCAR file                          |
|          I HOPE YOU KNOW, WHAT YOU ARE  DOING                               |
|                                                                             |
 ----------------------------------------------------------------------------- 

 PAW_PBE Pt 05Jan2001                   :
 energy of atom  1       EATOM= -729.1171
 kinetic energy error for atom=    0.0058 (will be added to EATOM!!)
 PAW_PBE C 08Apr2002                    :
 energy of atom  2       EATOM= -147.1560
 kinetic energy error for atom=    0.0312 (will be added to EATOM!!)
 PAW_PBE H 15Jun2001                    :
 energy of atom  3       EATOM=  -12.4884
 kinetic energy error for atom=    0.0103 (will be added to EATOM!!)
 
 
 POSCAR: Pt	C	H	C	H		                            
  positions in direct lattice
  velocities in cartesian coordinates
 exchange correlation table for  LEXCH =       41
   RHO(1)=    0.500       N(1)  =     2000
   RHO(2)=  100.500       N(2)  =     4000
 


--------------------------------------------------------------------------------------------------------


 ion  position               nearest neighbor table
   1  0.000  0.000  0.372-   2 2.82   3 2.82   6 2.82   4 2.82   8 2.82   7 2.82  10 2.82  12 2.82
                            16 2.82
   2  0.333  0.000  0.372-   4 2.82   1 2.82   8 2.82   5 2.82   9 2.82   3 2.82  10 2.82  17 2.82
                            11 2.82
   3  0.667  0.000  0.372-   1 2.82   7 2.82   5 2.82   6 2.82   9 2.82  12 2.82   2 2.82  11 2.82
                            18 2.82
   4  1.000  0.333  0.372-   9 2.82   2 2.82   7 2.82   1 2.82   6 2.82   5 2.82  10 2.82  13 2.82
                            15 2.82
   5  0.333  0.333  0.372-   6 2.82   8 2.82   3 2.82   7 2.82   2 2.82   4 2.82  14 2.82  11 2.82
                            13 2.82
   6  0.667  0.333  0.372-   5 2.82   8 2.82   1 2.82   3 2.82   4 2.82  15 2.82   9 2.82  12 2.82
                            14 2.82
   7  1.000  0.667  0.372-   9 2.82   3 2.82   4 2.82   5 2.82   8 2.82   1 2.82  16 2.82  13 2.82
                            18 2.82
   8  0.333  0.667  0.372-   5 2.82   6 2.82   1 2.82   2 2.82   7 2.82  17 2.82   9 2.82  16 2.82
                            14 2.82
   9  0.667  0.667  0.372-   7 2.82   4 2.82  18 2.82   3 2.82   6 2.82   2 2.82   8 2.82  15 2.82
                            17 2.82
  10  0.111  0.111  0.457-  13 2.82  15 2.82  12 2.82  17 2.82  11 2.82   4 2.82   1 2.82   2 2.82
                            16 2.82  19 2.82  21 2.82  25 2.87
  11  0.444  0.111  0.457-  19 2.82  12 2.82  14 2.82  18 2.82  13 2.82  10 2.82   5 2.82   3 2.82
                            17 2.82   2 2.82  20 2.83  26 2.88
  12  0.778  0.111  0.457-  27 2.81  20 2.82  11 2.82  15 2.82  14 2.82  10 2.82  16 2.82   3 2.82
                             6 2.82   1 2.82  18 2.82  21 2.82
  13  0.111  0.444  0.457-  22 2.82  16 2.82  14 2.82  11 2.82  10 2.82  18 2.82   7 2.82   4 2.82
                             5 2.82  15 2.82  24 2.82  19 2.85
  14  0.444  0.444  0.457-  22 2.80  15 2.82  11 2.82  16 2.82  12 2.82  17 2.82  13 2.82   5 2.82
                             8 2.82   6 2.82  20 2.83  23 2.84
  15  0.778  0.444  0.457-  24 2.81  17 2.82  14 2.82  12 2.82  18 2.82  10 2.82   6 2.82   9 2.82
                            13 2.82   4 2.82  21 2.83  23 2.84
  16  0.111  0.778  0.457-  27 2.80  22 2.82  13 2.82  14 2.82  17 2.82  12 2.82   7 2.82  10 2.82
                             8 2.82  18 2.82   1 2.82  25 2.86
  17  0.444  0.778  0.457-  18 2.82  15 2.82  14 2.82  16 2.82  10 2.82   8 2.82  11 2.82   9 2.82
                             2 2.82  25 2.84  23 2.85  26 2.85
  18  0.778  0.778  0.457-  27 2.81  17 2.82  15 2.82  11 2.82   9 2.82  13 2.82  16 2.82   3 2.82
                            12 2.82   7 2.82  24 2.82  26 2.86
  19  0.225  0.217  0.543-  26 2.80  25 2.80  28 2.81  29 2.81  11 2.82  10 2.82  20 2.82  21 2.83
                            22 2.85  24 2.85  13 2.85  35 2.93
  20  0.557  0.221  0.543-  21 2.81  27 2.82  22 2.82  12 2.82  23 2.82  19 2.82  11 2.83  14 2.83
                            36 2.83  29 2.83  26 2.84  30 2.87
  21  0.889  0.221  0.543-  20 2.81  23 2.81  24 2.81  27 2.82  12 2.82  10 2.82  19 2.83  15 2.83
                            34 2.83  28 2.84  25 2.84  30 2.87
  22  0.224  0.554  0.542-  14 2.80  23 2.81  25 2.81  13 2.82  20 2.82  16 2.82  27 2.82  24 2.84
                            29 2.84  19 2.85  33 2.85  31 2.86
  23  0.556  0.555  0.544-  26 2.80  25 2.80  24 2.81  22 2.81  21 2.81  20 2.82  15 2.84  14 2.84
                            17 2.85  30 2.87  31 2.90  32 2.92
  24  0.888  0.555  0.543-  23 2.81  26 2.81  15 2.81  21 2.81  13 2.82  18 2.82  27 2.82  28 2.84
                            22 2.84  33 2.85  19 2.85  32 2.87
  25  0.225  0.886  0.544-  26 2.79  19 2.80  23 2.80  22 2.81  34 2.83  31 2.83  27 2.83  21 2.84
                            17 2.84  16 2.86  10 2.87  35 2.96
  26  0.556  0.886  0.545-  25 2.79  23 2.80  19 2.80  24 2.81  36 2.82  27 2.83  20 2.84  32 2.84
                            17 2.85  18 2.86  11 2.88  35 2.95
  27  0.890  0.888  0.542-  16 2.80  18 2.81  12 2.81  20 2.82  21 2.82  24 2.82  22 2.82  26 2.83
                            25 2.83  34 2.84  33 2.84  36 2.84
  28  0.005  0.331  0.629-  35 2.76  29 2.77  19 2.81  32 2.82  33 2.82  34 2.83  21 2.84  24 2.84
                            30 2.84
  29  0.332  0.331  0.629-  35 2.76  28 2.77  19 2.81  31 2.82  33 2.83  36 2.83  20 2.83  22 2.84
                            30 2.84
  30  0.669  0.329  0.631-  38 2.24  34 2.78  36 2.78  28 2.84  29 2.84  21 2.87  23 2.87  20 2.87
                            32 2.89  31 2.89
  31  0.325  0.668  0.631-  39 2.23  37 2.60  33 2.75  34 2.79  29 2.82  25 2.83  22 2.86  35 2.88
                            30 2.89  23 2.90  32 2.96
  32  0.675  0.668  0.632-  42 2.23  40 2.57  33 2.75  36 2.79  28 2.82  26 2.84  24 2.87  30 2.89
                            35 2.89  23 2.92  31 2.96
  33  0.000  0.667  0.629-  31 2.75  32 2.75  34 2.80  36 2.80  28 2.82  29 2.83  27 2.84  24 2.85
                            22 2.85
  34  0.997  0.000  0.629-  36 2.76  30 2.78  31 2.79  33 2.80  25 2.83  21 2.83  28 2.83  27 2.84
                            35 2.85
  35  0.330  0.006  0.636-  43 2.15  41 2.63  28 2.76  29 2.76  34 2.85  36 2.86  31 2.88  32 2.89
                            19 2.93  26 2.95  25 2.96
  36  0.671  0.000  0.629-  34 2.76  30 2.78  32 2.79  33 2.80  26 2.82  29 2.83  20 2.83  27 2.84
                            35 2.86
  37  0.440  0.494  0.715-  44 1.09  39 1.43  38 1.44  31 2.60
  38  0.637  0.394  0.713-  45 1.09  37 1.44  40 1.45  30 2.24
  39  0.339  0.689  0.713-  46 1.09  37 1.43  41 1.46  31 2.23
  40  0.730  0.499  0.716-  47 1.09  42 1.43  38 1.45  32 2.57
  41  0.433  0.793  0.715-  43 1.44  42 1.46  39 1.46  35 2.63
  42  0.632  0.693  0.714-  48 1.09  40 1.43  41 1.46  32 2.23
  43  0.333  0.990  0.716-  49 1.09  50 1.09  41 1.44  35 2.15
  44  0.368  0.420  0.723-  37 1.09
  45  0.708  0.255  0.727-  38 1.09
  46  0.196  0.759  0.725-  39 1.09
  47  0.876  0.428  0.724-  40 1.09
  48  0.701  0.767  0.726-  42 1.09
  49  0.406  0.057  0.730-  43 1.09
  50  0.191  0.053  0.728-  43 1.09
 

IMPORTANT INFORMATION: All symmetrisations will be switched off!
NOSYMM: (Re-)initialisation of all symmetry stuff for point group C_1.

 
 
 KPOINTS: Automatic mesh                          

Automatic generation of k-mesh.
Space group operators:
 irot       det(A)        alpha          n_x          n_y          n_z        tau_x        tau_y        tau_z
    1     1.000000     0.000001     1.000000     0.000000     0.000000     0.000000     0.000000     0.000000
 
 Subroutine IBZKPT returns following result:
 ===========================================
 
 Found     34 irreducible k-points:
 
 Following reciprocal coordinates:
            Coordinates               Weight
  0.000000  0.000000  0.000000      1.000000
  0.125000 -0.000000  0.000000      2.000000
  0.250000 -0.000000  0.000000      2.000000
  0.375000 -0.000000  0.000000      2.000000
  0.500000 -0.000000  0.000000      1.000000
  0.000000  0.125000  0.000000      2.000000
  0.125000  0.125000  0.000000      2.000000
  0.250000  0.125000  0.000000      2.000000
  0.375000  0.125000  0.000000      2.000000
  0.500000  0.125000  0.000000      2.000000
 -0.375000  0.125000  0.000000      2.000000
 -0.250000  0.125000  0.000000      2.000000
 -0.125000  0.125000  0.000000      2.000000
  0.000000  0.250000  0.000000      2.000000
  0.125000  0.250000  0.000000      2.000000
  0.250000  0.250000  0.000000      2.000000
  0.375000  0.250000  0.000000      2.000000
  0.500000  0.250000  0.000000      2.000000
 -0.375000  0.250000  0.000000      2.000000
 -0.250000  0.250000  0.000000      2.000000
 -0.125000  0.250000  0.000000      2.000000
  0.000000  0.375000  0.000000      2.000000
  0.125000  0.375000  0.000000      2.000000
  0.250000  0.375000  0.000000      2.000000
  0.375000  0.375000  0.000000      2.000000
  0.500000  0.375000  0.000000      2.000000
 -0.375000  0.375000  0.000000      2.000000
 -0.250000  0.375000  0.000000      2.000000
 -0.125000  0.375000  0.000000      2.000000
  0.000000  0.500000  0.000000      1.000000
  0.125000  0.500000  0.000000      2.000000
  0.250000  0.500000  0.000000      2.000000
  0.375000  0.500000  0.000000      2.000000
  0.500000  0.500000  0.000000      1.000000
 
 Following cartesian coordinates:
            Coordinates               Weight
  0.000000  0.000000  0.000000      1.000000
  0.014783 -0.008535  0.000000      2.000000
  0.029566 -0.017070  0.000000      2.000000
  0.044349 -0.025605  0.000000      2.000000
  0.059133 -0.034140  0.000000      1.000000
  0.000000  0.017070  0.000000      2.000000
  0.014783  0.008535  0.000000      2.000000
  0.029566 -0.000000  0.000000      2.000000
  0.044349 -0.008535  0.000000      2.000000
  0.059133 -0.017070  0.000000      2.000000
 -0.044349  0.042675  0.000000      2.000000
 -0.029566  0.034140  0.000000      2.000000
 -0.014783  0.025605  0.000000      2.000000
  0.000000  0.034140  0.000000      2.000000
  0.014783  0.025605  0.000000      2.000000
  0.029566  0.017070  0.000000      2.000000
  0.044349  0.008535  0.000000      2.000000
  0.059133 -0.000000  0.000000      2.000000
 -0.044349  0.059745  0.000000      2.000000
 -0.029566  0.051210  0.000000      2.000000
 -0.014783  0.042675  0.000000      2.000000
  0.000000  0.051210  0.000000      2.000000
  0.014783  0.042675  0.000000      2.000000
  0.029566  0.034140  0.000000      2.000000
  0.044349  0.025605  0.000000      2.000000
  0.059133  0.017070  0.000000      2.000000
 -0.044349  0.076815  0.000000      2.000000
 -0.029566  0.068280  0.000000      2.000000
 -0.014783  0.059745  0.000000      2.000000
  0.000000  0.068280  0.000000      1.000000
  0.014783  0.059745  0.000000      2.000000
  0.029566  0.051210  0.000000      2.000000
  0.044349  0.042675  0.000000      2.000000
  0.059133  0.034140  0.000000      1.000000
 


--------------------------------------------------------------------------------------------------------




 Dimension of arrays:
   k-points           NKPTS =     34   k-points in BZ     NKDIM =     34   number of bands    NBANDS=    238
   number of dos      NEDOS =    301   number of ions     NIONS =     50
   non local maximal  LDIM  =      6   non local SUM 2l+1 LMDIM =     18
   total plane-waves  NPLWV = 246960
   max r-space proj   IRMAX =   2214   max aug-charges    IRDMAX=   9178
   dimension x,y,z NGX =    42 NGY =   42 NGZ =  140
   dimension x,y,z NGXF=    84 NGYF=   84 NGZF=  280
   support grid    NGXF=    84 NGYF=   84 NGZF=  280
   ions per type =              36   7   7
   NGX,Y,Z   is equivalent  to a cutoff of   8.26,  8.26,  8.65 a.u.
   NGXF,Y,Z  is equivalent  to a cutoff of  16.52, 16.52, 17.30 a.u.

 SYSTEM =  unknown system                          
 POSCAR =  Pt	C	H	C	H		                            

 Startparameter for this run:
   NWRITE =      2    write-flag & timer
   PREC   = normal    normal or accurate (medium, high low for compatibility)
   ISTART =      0    job   : 0-new  1-cont  2-samecut
   ICHARG =      2    charge: 1-file 2-atom 10-const
   ISPIN  =      1    spin polarized calculation?
   LNONCOLLINEAR =      F non collinear calculations
   LSORBIT =      F    spin-orbit coupling
   INIWAV =      1    electr: 0-lowe 1-rand  2-diag
   LASPH  =      F    aspherical Exc in radial PAW
   METAGGA=      F    non-selfconsistent MetaGGA calc.

 Electronic Relaxation 1
   ENCUT  =  396.0 eV  29.11 Ry    5.39 a.u.  13.72 13.72 43.65*2*pi/ulx,y,z
   ENINI  =  396.0     initial cutoff
   ENAUG  =  644.9 eV  augmentation charge cutoff
   NELM   =     80;   NELMIN=  2; NELMDL=  0     # of ELM steps 
   EDIFF  = 0.1E-05   stopping-criterion for ELM
   LREAL  =      T    real-space projection
   NLSPLINE    = F    spline interpolate recip. space projectors
   LCOMPAT=      F    compatible to vasp.4.4
   GGA_COMPAT  = T    GGA compatible to vasp.4.4-vasp.4.6
   LMAXPAW     = -100 max onsite density
   LMAXMIX     =    2 max onsite mixed and CHGCAR
   VOSKOWN=      0    Vosko Wilk Nusair interpolation
   ROPT   =   -0.00050  -0.00050  -0.00050
 Ionic relaxation
   EDIFFG = -.1E+00   stopping-criterion for IOM
   NSW    =    200    number of steps for IOM
   NBLOCK =      1;   KBLOCK =    200    inner block; outer block 
   IBRION =      2    ionic relax: 0-MD 1-quasi-New 2-CG
   NFREE  =      1    steps in history (QN), initial steepest desc. (CG)
   ISIF   =      0    stress and relaxation
   IWAVPR =     11    prediction:  0-non 1-charg 2-wave 3-comb
   ISYM   =      0    0-nonsym 1-usesym 2-fastsym
   LCORR  =      T    Harris-Foulkes like correction to forces

   POTIM  = 0.1000    time-step for ionic-motion
   TEIN   =    0.0    initial temperature
   TEBEG  =    0.0;   TEEND  =   0.0 temperature during run
   SMASS  =  -3.00    Nose mass-parameter (am)
   estimated Nose-frequenzy (Omega)   =  0.10E-29 period in steps =****** mass=  -0.163E-26a.u.
   SCALEE = 1.0000    scale energy and forces
   NPACO  =    256;   APACO  = 16.0  distance and # of slots for P.C.
   PSTRESS=    0.0 pullay stress

  Mass of Ions in am
   POMASS = 195.08 12.01  1.00
  Ionic Valenz
   ZVAL   =  10.00  4.00  1.00
  Atomic Wigner-Seitz radii
   RWIGS  =  -1.00 -1.00 -1.00
  virtual crystal weights 
   VCA    =   1.00  1.00  1.00
   NELECT =     395.0000    total number of electrons
   NUPDOWN=      -1.0000    fix difference up-down

 DOS related values:
   EMIN   =  10.00;   EMAX   =-10.00  energy-range for DOS
   EFERMI =   0.00
   ISMEAR =     2;   SIGMA  =   0.20  broadening in eV -4-tet -1-fermi 0-gaus

 Electronic relaxation 2 (details)
   IALGO  =     68    algorithm
   LDIAG  =      T    sub-space diagonalisation (order eigenvalues)
   LSUBROT=      F    optimize rotation matrix (better conditioning)
   TURBO    =      0    0=normal 1=particle mesh
   IRESTART =      0    0=no restart 2=restart with 2 vectors
   NREBOOT  =      0    no. of reboots
   NMIN     =      0    reboot dimension
   EREF     =   0.00    reference energy to select bands
   IMIX   =      4    mixing-type and parameters
     AMIX     =   0.40;   BMIX     =  4.00
     AMIX_MAG =   1.60;   BMIX_MAG =  4.00
     AMIN     =   0.10
     WC   =   100.;   INIMIX=   1;  MIXPRE=   1;  MAXMIX=  80

 Intra band minimization:
   WEIMIN = 0.0010     energy-eigenvalue tresh-hold
   EBREAK =  0.11E-08  absolut break condition
   DEPER  =   0.30     relativ break condition  

   TIME   =   0.40     timestep for ELM

  volume/ion in A,a.u.               =      33.32       224.83
  Fermi-wavevector in a.u.,A,eV,Ry     =   1.013279  1.914821 13.969582  1.026735
  Thomas-Fermi vector in A             =   2.146439
 
 Write flags
   LWAVE        =      T    write WAVECAR
   LDOWNSAMPLE  =      F    k-point downsampling of WAVECAR
   LCHARG       =      T    write CHGCAR
   LVTOT        =      F    write LOCPOT, total local potential
   LVHAR        =      F    write LOCPOT, Hartree potential only
   LELF         =      F    write electronic localiz. function (ELF)
   LORBIT       =      0    0 simple, 1 ext, 2 COOP (PROOUT), +10 PAW based schemes


 Dipole corrections
   LMONO  =      F    monopole corrections only (constant potential shift)
   LDIPOL =      F    correct potential (dipole corrections)
   IDIPOL =      0    1-x, 2-y, 3-z, 4-all directions 
   EPSILON=  1.0000000 bulk dielectric constant

 Exchange correlation treatment:
   GGA     =    OR    GGA type
   LEXCH   =    41    internal setting for exchange type
   VOSKOWN=      0    Vosko Wilk Nusair interpolation
   LHFCALC =     F    Hartree Fock is set to
   LHFONE  =     F    Hartree Fock one center treatment
   AEXX    =    0.0000 exact exchange contribution

 vdW DFT:
   LUSE_VDW   =     T    switch on vdW DFT
   Zab_VDW    =-.8491    correlation parameter
   PARAM1     =0.1234
   PARAM2     =1.0000
   PARAM3     =0.0000
   -- rVV10 --
   BPARAM     = 6.3000
   CPARAM     = 0.0093

 Linear response parameters
   LEPSILON=     F    determine dielectric tensor
   LRPA    =     F    only Hartree local field effects (RPA)
   LNABLA  =     F    use nabla operator in PAW spheres
   LVEL    =     F    velocity operator in full k-point grid
   LINTERFAST=   F  fast interpolation
   KINTER  =     0    interpolate to denser k-point grid
   CSHIFT  =0.1000    complex shift for real part using Kramers Kronig
   OMEGAMAX=  -1.0    maximum frequency
   DEG_THRESHOLD= 0.2000000E-02 threshold for treating states as degnerate
   RTIME   =   -0.100 relaxation time in fs
  (WPLASMAI=    0.000 imaginary part of plasma frequency in eV, 0.658/RTIME)
   DFIELD  = 0.0000000 0.0000000 0.0000000 field for delta impulse in time
 
 Orbital magnetization related:
   ORBITALMAG=     F  switch on orbital magnetization
   LCHIMAG   =     F  perturbation theory with respect to B field
   DQ        =  0.001000  dq finite difference perturbation B field
   LLRAUG    =     F  two centre corrections for induced B field



--------------------------------------------------------------------------------------------------------


 conjugate gradient relaxation of ions
   using selective dynamics as specified on POSCAR
 charge density and potential will be updated during run
 non-spin polarized calculation
 RMM-DIIS sequential band-by-band and
  variant of blocked Davidson during initial phase
 perform sub-space diagonalisation
    before iterative eigenvector-optimisation
 modified Broyden-mixing scheme, WC =      100.0
 initial mixing is a Kerker type mixing with AMIX =  0.4000 and BMIX =      4.0000
 Hartree-type preconditioning will be used
 using additional bands           40
 real space projection scheme for non local part
 use partial core corrections
 calculate Harris-corrections to forces 
   (improved forces if not selfconsistent)
 use gradient corrections 
 use of overlap-Matrix (Vanderbilt PP)
 Methfessel and Paxton  Order N= 2 SIGMA  =   0.20


--------------------------------------------------------------------------------------------------------


  energy-cutoff  :      396.00
  volume of cell :     1665.84
      direct lattice vectors                 reciprocal lattice vectors
     8.455582619  0.000000000  0.000000000     0.118265062 -0.068280376  0.000000000
     4.227791797  7.322749070  0.000000000     0.000000000  0.136560736  0.000000000
     0.000000000  0.000000000 26.903955460     0.000000000  0.000000000  0.037169256

  length of vectors
     8.455582619  8.455582619 26.903955460     0.136560736  0.136560736  0.037169256


 
 k-points in units of 2pi/SCALE and weight: Automatic mesh                          
   0.00000000  0.00000000  0.00000000       0.016
   0.01478313 -0.00853505  0.00000000       0.031
   0.02956627 -0.01707009  0.00000000       0.031
   0.04434940 -0.02560514  0.00000000       0.031
   0.05913253 -0.03414019  0.00000000       0.016
   0.00000000  0.01707009  0.00000000       0.031
   0.01478313  0.00853504  0.00000000       0.031
   0.02956627 -0.00000000  0.00000000       0.031
   0.04434940 -0.00853505  0.00000000       0.031
   0.05913253 -0.01707010  0.00000000       0.031
  -0.04434940  0.04267523  0.00000000       0.031
  -0.02956627  0.03414019  0.00000000       0.031
  -0.01478313  0.02560514  0.00000000       0.031
   0.00000000  0.03414018  0.00000000       0.031
   0.01478313  0.02560514  0.00000000       0.031
   0.02956627  0.01707009  0.00000000       0.031
   0.04434940  0.00853504  0.00000000       0.031
   0.05913253 -0.00000000  0.00000000       0.031
  -0.04434940  0.05974532  0.00000000       0.031
  -0.02956627  0.05121028  0.00000000       0.031
  -0.01478313  0.04267523  0.00000000       0.031
   0.00000000  0.05121028  0.00000000       0.031
   0.01478313  0.04267523  0.00000000       0.031
   0.02956627  0.03414018  0.00000000       0.031
   0.04434940  0.02560513  0.00000000       0.031
   0.05913253  0.01707009  0.00000000       0.031
  -0.04434940  0.07681542  0.00000000       0.031
  -0.02956627  0.06828037  0.00000000       0.031
  -0.01478313  0.05974532  0.00000000       0.031
   0.00000000  0.06828037  0.00000000       0.016
   0.01478313  0.05974532  0.00000000       0.031
   0.02956627  0.05121027  0.00000000       0.031
   0.04434940  0.04267523  0.00000000       0.031
   0.05913253  0.03414018  0.00000000       0.016
 
 k-points in reciprocal lattice and weights: Automatic mesh                          
   0.00000000  0.00000000  0.00000000       0.016
   0.12500000 -0.00000000  0.00000000       0.031
   0.25000000 -0.00000000  0.00000000       0.031
   0.37500000 -0.00000000  0.00000000       0.031
   0.50000000 -0.00000000  0.00000000       0.016
   0.00000000  0.12500000  0.00000000       0.031
   0.12500000  0.12500000  0.00000000       0.031
   0.25000000  0.12500000  0.00000000       0.031
   0.37500000  0.12500000  0.00000000       0.031
   0.50000000  0.12500000  0.00000000       0.031
  -0.37500000  0.12500000  0.00000000       0.031
  -0.25000000  0.12500000  0.00000000       0.031
  -0.12500000  0.12500000  0.00000000       0.031
   0.00000000  0.25000000  0.00000000       0.031
   0.12500000  0.25000000  0.00000000       0.031
   0.25000000  0.25000000  0.00000000       0.031
   0.37500000  0.25000000  0.00000000       0.031
   0.50000000  0.25000000  0.00000000       0.031
  -0.37500000  0.25000000  0.00000000       0.031
  -0.25000000  0.25000000  0.00000000       0.031
  -0.12500000  0.25000000  0.00000000       0.031
   0.00000000  0.37500000  0.00000000       0.031
   0.12500000  0.37500000  0.00000000       0.031
   0.25000000  0.37500000  0.00000000       0.031
   0.37500000  0.37500000  0.00000000       0.031
   0.50000000  0.37500000  0.00000000       0.031
  -0.37500000  0.37500000  0.00000000       0.031
  -0.25000000  0.37500000  0.00000000       0.031
  -0.12500000  0.37500000  0.00000000       0.031
   0.00000000  0.50000000  0.00000000       0.016
   0.12500000  0.50000000  0.00000000       0.031
   0.25000000  0.50000000  0.00000000       0.031
   0.37500000  0.50000000  0.00000000       0.031
   0.50000000  0.50000000  0.00000000       0.016
 
 position of ions in fractional coordinates (direct lattice) 
   0.00000000  0.00000000  0.37169252
   0.33333330  0.00000000  0.37169252
   0.66666670  0.00000000  0.37169252
   0.99999999  0.33333333  0.37169252
   0.33333337  0.33333333  0.37169252
   0.66666667  0.33333333  0.37169252
   0.99999999  0.66666665  0.37169252
   0.33333334  0.66666665  0.37169252
   0.66666675  0.66666665  0.37169252
   0.11111108  0.11111113  0.45723084
   0.44444448  0.11111113  0.45723084
   0.77777772  0.11111113  0.45723084
   0.11111111  0.44444442  0.45723084
   0.44444441  0.44444442  0.45723084
   0.77777765  0.44444442  0.45723084
   0.11111111  0.77777768  0.45723084
   0.44444446  0.77777768  0.45723084
   0.77777765  0.77777768  0.45723084
   0.22516971  0.21724740  0.54332213
   0.55710952  0.22124779  0.54298373
   0.88888261  0.22146335  0.54299486
   0.22415307  0.55438270  0.54246652
   0.55640962  0.55471137  0.54396575
   0.88826992  0.55467697  0.54266143
   0.22541386  0.88615829  0.54449566
   0.55573682  0.88595818  0.54489855
   0.88961641  0.88774794  0.54223928
   0.00460900  0.33101889  0.62875671
   0.33244556  0.33084285  0.62876507
   0.66938517  0.32931541  0.63123023
   0.32487627  0.66829873  0.63127160
   0.67451812  0.66799268  0.63223754
   0.00032834  0.66699007  0.62904376
   0.99676472  0.00023440  0.62912148
   0.33042498  0.00609371  0.63592561
   0.67052569  0.00022679  0.62936512
   0.44048172  0.49409391  0.71519156
   0.63725185  0.39418287  0.71276072
   0.33901829  0.68876791  0.71343002
   0.72964128  0.49886522  0.71559743
   0.43330016  0.79326395  0.71462780
   0.63202754  0.69342177  0.71424444
   0.33258187  0.99002834  0.71579572
   0.36826293  0.41991662  0.72291446
   0.70838301  0.25487357  0.72741828
   0.19586037  0.75855495  0.72501274
   0.87569236  0.42776491  0.72388664
   0.70124767  0.76650036  0.72639988
   0.40608583  0.05660465  0.72994862
   0.19052652  0.05323209  0.72823686
 
 position of ions in cartesian coordinates  (Angst):
   0.00000000  0.00000000  9.99999906
   2.81852722  0.00000000  9.99999906
   5.63705539  0.00000000  9.99999906
   9.86484647  2.44091630  9.99999906
   4.22779178  2.44091630  9.99999906
   7.04631901  2.44091630  9.99999906
  11.27411032  4.88183260  9.99999906
   5.63705539  4.88183260  9.99999906
   8.45558357  4.88183260  9.99999906
   1.40926361  0.81363892 12.30131818
   4.22779179  0.81363892 12.30131818
   7.04631853  0.81363892 12.30131818
   2.81852770  3.25455499 12.30131818
   5.63705492  3.25455499 12.30131818
   8.45558166  3.25455499 12.30131818
   4.22779131  5.69547081 12.30131818
   7.04631901  5.69547081 12.30131818
   9.86484527  5.69547081 12.30131818
   2.82241785  1.59084818 14.61751452
   5.64607519  1.62014207 14.60841004
   8.45232123  1.62172053 14.60870944
   4.23915945  4.05960538 14.59449502
   7.04997171  4.06201216 14.63483022
   9.85589845  4.06176030 14.59973888
   5.65249827  6.48911481 14.64908701
   8.44472530  6.48764941 14.65992628
  11.27543855  6.50075539 14.58838157
   1.43845074  2.42396825 16.91604249
   4.20975562  2.42267919 16.91626736
   7.05231855  2.41149408 16.98258987
   5.57244606  4.89378394 16.98370299
   8.52757771  4.89154281 17.00969063
   2.82267148  4.88420091 16.92376521
   8.42921745  0.00171643 16.92585628
   2.81969863  0.04462268 17.10891435
   5.67064423  0.00166073 16.93241126
   5.81345574  3.61812572 19.24148201
   7.05485880  2.88650224 19.17608276
   5.77856448  5.04367459 19.19408956
   8.27864039  3.65306485 19.25240140
   7.01756009  5.80887283 19.22631443
   8.27580397  5.07775361 19.21600066
   6.99780719  7.24972909 19.25773618
   4.88919763  3.07494401 19.44925851
   7.06734351  1.86637523 19.57042906
   4.86312589  5.55470754 19.50571046
   9.21299012  3.13241511 19.47541382
   9.17006150  5.61288978 19.54302991
   3.67300498  0.41450164 19.63850528
   1.83606693  0.38980522 19.59245204
 


--------------------------------------------------------------------------------------------------------


 k-point  1 :   0.0000 0.0000 0.0000  plane waves:   29865
 k-point  2 :   0.1250-0.0000 0.0000  plane waves:   29830
 k-point  3 :   0.2500-0.0000 0.0000  plane waves:   29798
 k-point  4 :   0.3750-0.0000 0.0000  plane waves:   29786
 k-point  5 :   0.5000-0.0000 0.0000  plane waves:   29806
 k-point  6 :   0.0000 0.1250 0.0000  plane waves:   29830
 k-point  7 :   0.1250 0.1250 0.0000  plane waves:   29830
 k-point  8 :   0.2500 0.1250 0.0000  plane waves:   29817
 k-point  9 :   0.3750 0.1250 0.0000  plane waves:   29820
 k-point 10 :   0.5000 0.1250 0.0000  plane waves:   29812
 k-point 11 :  -0.3750 0.1250 0.0000  plane waves:   29812
 k-point 12 :  -0.2500 0.1250 0.0000  plane waves:   29820
 k-point 13 :  -0.1250 0.1250 0.0000  plane waves:   29817
 k-point 14 :   0.0000 0.2500 0.0000  plane waves:   29798
 k-point 15 :   0.1250 0.2500 0.0000  plane waves:   29817
 k-point 16 :   0.2500 0.2500 0.0000  plane waves:   29798
 k-point 17 :   0.3750 0.2500 0.0000  plane waves:   29820
 k-point 18 :   0.5000 0.2500 0.0000  plane waves:   29770
 k-point 19 :  -0.3750 0.2500 0.0000  plane waves:   29794
 k-point 20 :  -0.2500 0.2500 0.0000  plane waves:   29770
 k-point 21 :  -0.1250 0.2500 0.0000  plane waves:   29820
 k-point 22 :   0.0000 0.3750 0.0000  plane waves:   29786
 k-point 23 :   0.1250 0.3750 0.0000  plane waves:   29820
 k-point 24 :   0.2500 0.3750 0.0000  plane waves:   29820
 k-point 25 :   0.3750 0.3750 0.0000  plane waves:   29786
 k-point 26 :   0.5000 0.3750 0.0000  plane waves:   29812
 k-point 27 :  -0.3750 0.3750 0.0000  plane waves:   29794
 k-point 28 :  -0.2500 0.3750 0.0000  plane waves:   29794
 k-point 29 :  -0.1250 0.3750 0.0000  plane waves:   29812
 k-point 30 :   0.0000 0.5000 0.0000  plane waves:   29806
 k-point 31 :   0.1250 0.5000 0.0000  plane waves:   29812
 k-point 32 :   0.2500 0.5000 0.0000  plane waves:   29770
 k-point 33 :   0.3750 0.5000 0.0000  plane waves:   29812
 k-point 34 :   0.5000 0.5000 0.0000  plane waves:   29806

 maximum and minimum number of plane-waves per node :     29865    29770

 maximum number of plane-waves:     29865
 maximum index in each direction: 
   IXMAX=   14   IYMAX=   13   IZMAX=   43
   IXMIN=  -14   IYMIN=  -14   IZMIN=  -43


 serial   3D FFT for wavefunctions
 parallel 3D FFT for charge:
    minimum data exchange during FFTs selected (reduces bandwidth)


 total amount of memory used by VASP MPI-rank0  2134755. kBytes
=======================================================================

   base      :      30000. kBytes
   nonlr-proj:      14864. kBytes
   fftplans  :      34337. kBytes
   grid      :      73467. kBytes
   one-center:        777. kBytes
   wavefun   :    1981310. kBytes
 
     INWAV:  cpu time    0.0001: real time    0.0001
 Broyden mixing: mesh for mixing (old mesh)
   NGX = 27   NGY = 27   NGZ = 87
  (NGX  = 84   NGY  = 84   NGZ  =280)
  gives a total of  63423 points

 initial charge density was supplied:
 charge density of overlapping atoms calculated
 number of electron     395.0000000 magnetization 
 keeping initial charge density in first step


--------------------------------------------------------------------------------------------------------


 Maximum index for non-local projection operator         2116
 Maximum index for augmentation-charges         4370 (set IRDMAX)


--------------------------------------------------------------------------------------------------------


 First call to EWALD:  gamma=   0.150
 Maximum number of real-space cells 4x 4x 1
 Maximum number of reciprocal cells 2x 2x 6

    FEWALD:  cpu time    0.1157: real time    0.0070


----------------------------------------- Iteration    1(   1)  ---------------------------------------


vdW kernel read from vdw_kernel.bindat
  0.0000  0.2424  0.5071  0.7962  1.1119  1.4567  1.8333  2.2446  2.6937  3.1842
  3.7199  4.3049  4.9438  5.6415  6.4036  7.2358  8.1446  9.1372 10.2212 11.4050
 12.6979 14.1099 15.6519 17.3360 19.1751 21.1837 23.3773 25.7729 28.3892 31.2465
 34.3669 37.7748 41.4965 45.5611 50.0000
 
    POTLOK:  cpu time   27.1324: real time   24.2946
    SETDIJ:  cpu time    0.4474: real time    0.0962
     EDDAV:  cpu time 1346.0153: real time   52.1705
       DOS:  cpu time    0.8101: real time    0.0253
    --------------------------------------------
      LOOP:  cpu time 1374.4613: real time   76.5901

 eigenvalue-minimisations  : 16280
 total energy-change (2. order) : 0.3541064E+04  (-0.1416591E+05)
 number of electron     395.0000000 magnetization 
 augmentation part      395.0000000 magnetization 

 Free energy of the ion-electron system (eV)
  ---------------------------------------------------
  alpha Z        PSCENC =      1279.83449570
  Ewald energy   TEWEN  =    165080.78170411
  -Hartree energ DENC   =   -193713.22602420
  -exchange      EXHF   =         0.00000000
  -V(xc)+E(xc)   XCENC  =       203.83374306
  PAW double counting   =     20935.32432665   -19890.19894991
  entropy T*S    EENTRO =         0.00394934
  eigenvalues    EBANDS =      2200.44807390
  atomic energy  EATOM  =     27444.26252098
  Solvation  Ediel_sol  =         0.00000000
  ---------------------------------------------------
  free energy    TOTEN  =      3541.06383963 eV

  energy without entropy =     3541.05989029  energy(sigma->0) =     3541.06285229


--------------------------------------------------------------------------------------------------------




----------------------------------------- Iteration    1(   2)  ---------------------------------------


     EDDAV:  cpu time 1890.6058: real time   93.1998
       DOS:  cpu time    1.4684: real time    0.0469
    --------------------------------------------
      LOOP:  cpu time 1892.1044: real time   93.2477

 eigenvalue-minimisations  : 16922
 total energy-change (2. order) :-0.3341878E+04  (-0.3064765E+04)
 number of electron     395.0000000 magnetization 
 augmentation part      395.0000000 magnetization 

 Free energy of the ion-electron system (eV)
  ---------------------------------------------------
  alpha Z        PSCENC =      1279.83449570
  Ewald energy   TEWEN  =    165080.78170411
  -Hartree energ DENC   =   -193713.22602420
  -exchange      EXHF   =         0.00000000
  -V(xc)+E(xc)   XCENC  =       203.83374306
  PAW double counting   =     20935.32432665   -19890.19894991
  entropy T*S    EENTRO =        -0.00126992
  eigenvalues    EBANDS =     -1141.42439008
  atomic energy  EATOM  =     27444.26252098
  Solvation  Ediel_sol  =         0.00000000
  ---------------------------------------------------
  free energy    TOTEN  =       199.18615639 eV

  energy without entropy =      199.18742631  energy(sigma->0) =      199.18647387


--------------------------------------------------------------------------------------------------------




----------------------------------------- Iteration    1(   3)  ---------------------------------------


     EDDAV:  cpu time 2192.1575: real time  105.5940
       DOS:  cpu time    0.8629: real time    0.0270
    --------------------------------------------
      LOOP:  cpu time 2193.2596: real time  105.6287

 eigenvalue-minimisations  : 21272
 total energy-change (2. order) :-0.4218288E+03  (-0.3920121E+03)
 number of electron     395.0000000 magnetization 
 augmentation part      395.0000000 magnetization 

 Free energy of the ion-electron system (eV)
  ---------------------------------------------------
  alpha Z        PSCENC =      1279.83449570
  Ewald energy   TEWEN  =    165080.78170411
  -Hartree energ DENC   =   -193713.22602420
  -exchange      EXHF   =         0.00000000
  -V(xc)+E(xc)   XCENC  =       203.83374306
  PAW double counting   =     20935.32432665   -19890.19894991
  entropy T*S    EENTRO =        -0.00250436
  eigenvalues    EBANDS =     -1563.25194234
  atomic energy  EATOM  =     27444.26252098
  Solvation  Ediel_sol  =         0.00000000
  ---------------------------------------------------
  free energy    TOTEN  =      -222.64263031 eV

  energy without entropy =     -222.64012594  energy(sigma->0) =     -222.64200422


--------------------------------------------------------------------------------------------------------




----------------------------------------- Iteration    1(   4)  ---------------------------------------


     EDDAV:  cpu time 2276.6142: real time  101.2822
       DOS:  cpu time    0.8805: real time    0.0275
    --------------------------------------------
      LOOP:  cpu time 2277.5213: real time  101.3105

 eigenvalue-minimisations  : 23320
 total energy-change (2. order) :-0.3403960E+02  (-0.3027311E+02)
 number of electron     395.0000000 magnetization 
 augmentation part      395.0000000 magnetization 

 Free energy of the ion-electron system (eV)
  ---------------------------------------------------
  alpha Z        PSCENC =      1279.83449570
  Ewald energy   TEWEN  =    165080.78170411
  -Hartree energ DENC   =   -193713.22602420
  -exchange      EXHF   =         0.00000000
  -V(xc)+E(xc)   XCENC  =       203.83374306
  PAW double counting   =     20935.32432665   -19890.19894991
  entropy T*S    EENTRO =        -0.06239526
  eigenvalues    EBANDS =     -1597.23165213
  atomic energy  EATOM  =     27444.26252098
  Solvation  Ediel_sol  =         0.00000000
  ---------------------------------------------------
  free energy    TOTEN  =      -256.68223100 eV

  energy without entropy =     -256.61983574  energy(sigma->0) =     -256.66663218


--------------------------------------------------------------------------------------------------------




----------------------------------------- Iteration    1(   5)  ---------------------------------------


     EDDAV:  cpu time 2198.2224: real time  108.1158
       DOS:  cpu time    0.8830: real time    0.0285
    CHARGE:  cpu time   18.8929: real time    7.8568
    MIXING:  cpu time    0.1813: real time    0.0227
    --------------------------------------------
      LOOP:  cpu time 2218.2073: real time  116.0246

 eigenvalue-minimisations  : 22000
 total energy-change (2. order) :-0.1246567E+01  (-0.1206407E+01)
 number of electron     394.9999892 magnetization 
 augmentation part      106.0089403 magnetization 

 Broyden mixing:
  rms(total) = 0.28544E+01    rms(broyden)= 0.28536E+01
  rms(prec ) = 0.31506E+01
  weight for this iteration     100.00

 Free energy of the ion-electron system (eV)
  ---------------------------------------------------
  alpha Z        PSCENC =      1279.83449570
  Ewald energy   TEWEN  =    165080.78170411
  -Hartree energ DENC   =   -193713.22602420
  -exchange      EXHF   =         0.00000000
  -V(xc)+E(xc)   XCENC  =       203.83374306
  PAW double counting   =     20935.32432665   -19890.19894991
  entropy T*S    EENTRO =        -0.06162484
  eigenvalues    EBANDS =     -1598.47898918
  atomic energy  EATOM  =     27444.26252098
  Solvation  Ediel_sol  =         0.00000000
  ---------------------------------------------------
  free energy    TOTEN  =      -257.92879763 eV

  energy without entropy =     -257.86717278  energy(sigma->0) =     -257.91339142


--------------------------------------------------------------------------------------------------------




----------------------------------------- Iteration    1(   6)  ---------------------------------------


    POTLOK:  cpu time   20.7756: real time   19.9134
    SETDIJ:  cpu time    0.2695: real time    0.0808
    EDDIAG:  cpu time  217.7390: real time   14.8978
  RMM-DIIS:  cpu time  753.3624: real time   44.4178
    ORTHCH:  cpu time  355.0957: real time   16.4014
       DOS:  cpu time    0.8767: real time    0.0292
    CHARGE:  cpu time   19.7546: real time    8.2393
    MIXING:  cpu time    0.2012: real time    0.0252
    --------------------------------------------
      LOOP:  cpu time 1368.0869: real time  104.0058

 eigenvalue-minimisations  : 17928
 total energy-change (2. order) : 0.1158670E+01  (-0.1940191E+01)
 number of electron     394.9999899 magnetization 
 augmentation part      109.5574914 magnetization 

 Broyden mixing:
  rms(total) = 0.27978E+01    rms(broyden)= 0.27969E+01
  rms(prec ) = 0.41813E+01
  weight for this iteration     100.00

 eigenvalues of (default mixing * dielectric matrix)
  average eigenvalue GAMMA=   0.5876
  0.5876

 Free energy of the ion-electron system (eV)
  ---------------------------------------------------
  alpha Z        PSCENC =      1279.83449570
  Ewald energy   TEWEN  =    165080.78170411
  -Hartree energ DENC   =   -193291.59721179
  -exchange      EXHF   =         0.00000000
  -V(xc)+E(xc)   XCENC  =       201.47116871
  PAW double counting   =     20865.80263216   -19866.19042914
  entropy T*S    EENTRO =         0.03887510
  eigenvalues    EBANDS =     -1971.17388360
  atomic energy  EATOM  =     27444.26252098
  Solvation  Ediel_sol  =         0.00000000
  ---------------------------------------------------
  free energy    TOTEN  =      -256.77012777 eV

  energy without entropy =     -256.80900287  energy(sigma->0) =     -256.77984654


--------------------------------------------------------------------------------------------------------




----------------------------------------- Iteration    1(   7)  ---------------------------------------


    POTLOK:  cpu time   19.8383: real time   18.9676
    SETDIJ:  cpu time    0.3880: real time    0.0849
    EDDIAG:  cpu time  252.6087: real time   18.6117
  RMM-DIIS:  cpu time  657.7482: real time   40.7415
    ORTHCH:  cpu time  306.3562: real time   16.5014
       DOS:  cpu time    1.9429: real time    0.0674
    CHARGE:  cpu time   18.7818: real time    8.7138
    MIXING:  cpu time    0.2591: real time    0.0324
    --------------------------------------------
      LOOP:  cpu time 1257.9354: real time  103.7217

 eigenvalue-minimisations  : 18047
 total energy-change (2. order) :-0.1686398E+02  (-0.2187143E+01)
 number of electron     394.9999934 magnetization 
 augmentation part      107.9918825 magnetization 

 Broyden mixing:
  rms(total) = 0.35425E+01    rms(broyden)= 0.35421E+01
  rms(prec ) = 0.60313E+01
  weight for this iteration     100.00

 eigenvalues of (default mixing * dielectric matrix)
  average eigenvalue GAMMA=   0.5612
  0.9906  0.1317

 Free energy of the ion-electron system (eV)
  ---------------------------------------------------
  alpha Z        PSCENC =      1279.83449570
  Ewald energy   TEWEN  =    165080.78170411
  -Hartree energ DENC   =   -193399.77306066
  -exchange      EXHF   =         0.00000000
  -V(xc)+E(xc)   XCENC  =       201.07945232
  PAW double counting   =     20947.83301703   -19955.12653798
  entropy T*S    EENTRO =        -0.04599565
  eigenvalues    EBANDS =     -1872.47969912
  atomic energy  EATOM  =     27444.26252098
  Solvation  Ediel_sol  =         0.00000000
  ---------------------------------------------------
  free energy    TOTEN  =      -273.63410327 eV

  energy without entropy =     -273.58810762  energy(sigma->0) =     -273.62260436


--------------------------------------------------------------------------------------------------------




----------------------------------------- Iteration    1(   8)  ---------------------------------------


    POTLOK:  cpu time   20.2762: real time   19.5045
    SETDIJ:  cpu time    0.3015: real time    0.0768
    EDDIAG:  cpu time  242.0699: real time   17.1591
  RMM-DIIS:  cpu time  718.9833: real time   41.5113
    ORTHCH:  cpu time  358.1105: real time   17.5673
       DOS:  cpu time    0.8701: real time    0.0293
    CHARGE:  cpu time   19.2469: real time    7.9218
    MIXING:  cpu time    0.1979: real time    0.0247
    --------------------------------------------
      LOOP:  cpu time 1360.0715: real time  103.7960

 eigenvalue-minimisations  : 17672
 total energy-change (2. order) : 0.2478977E+02  (-0.1452479E+01)
 number of electron     394.9999857 magnetization 
 augmentation part      108.9496637 magnetization 

 Broyden mixing:
  rms(total) = 0.23434E+01    rms(broyden)= 0.23430E+01
  rms(prec ) = 0.28895E+01
  weight for this iteration     100.00

 eigenvalues of (default mixing * dielectric matrix)
  average eigenvalue GAMMA=   0.7828
  1.9636  0.2552  0.1297

 Free energy of the ion-electron system (eV)
  ---------------------------------------------------
  alpha Z        PSCENC =      1279.83449570
  Ewald energy   TEWEN  =    165080.78170411
  -Hartree energ DENC   =   -193580.31253048
  -exchange      EXHF   =         0.00000000
  -V(xc)+E(xc)   XCENC  =       200.45361790
  PAW double counting   =     21025.17717804   -20043.37126603
  entropy T*S    EENTRO =        -0.01532150
  eigenvalues    EBANDS =     -1655.65473193
  atomic energy  EATOM  =     27444.26252098
  Solvation  Ediel_sol  =         0.00000000
  ---------------------------------------------------
  free energy    TOTEN  =      -248.84433321 eV

  energy without entropy =     -248.82901172  energy(sigma->0) =     -248.84050284


--------------------------------------------------------------------------------------------------------




----------------------------------------- Iteration    1(   9)  ---------------------------------------


    POTLOK:  cpu time   19.8187: real time   18.9751
    SETDIJ:  cpu time    0.2665: real time    0.0837
    EDDIAG:  cpu time  222.6154: real time   15.0557
  RMM-DIIS:  cpu time  558.1240: real time   33.9398
    ORTHCH:  cpu time  360.7902: real time   21.9474
       DOS:  cpu time    0.6761: real time    0.0412
    CHARGE:  cpu time   18.0226: real time    9.0967
    MIXING:  cpu time    0.1890: real time    0.0236
    --------------------------------------------
      LOOP:  cpu time 1180.5114: real time   99.1640

 eigenvalue-minimisations  : 16238
 total energy-change (2. order) : 0.9901516E+01  (-0.6556375E+00)
 number of electron     394.9999888 magnetization 
 augmentation part      111.1685484 magnetization 

 Broyden mixing:
  rms(total) = 0.14071E+01    rms(broyden)= 0.14070E+01
  rms(prec ) = 0.18895E+01
  weight for this iteration     100.00

 eigenvalues of (default mixing * dielectric matrix)
  average eigenvalue GAMMA=   1.0062
  2.6396  0.9468  0.3147  0.1238

 Free energy of the ion-electron system (eV)
  ---------------------------------------------------
  alpha Z        PSCENC =      1279.83449570
  Ewald energy   TEWEN  =    165080.78170411
  -Hartree energ DENC   =   -193437.67835949
  -exchange      EXHF   =         0.00000000
  -V(xc)+E(xc)   XCENC  =       198.49644344
  PAW double counting   =     21252.31195964   -20299.99215531
  entropy T*S    EENTRO =         0.02192879
  eigenvalues    EBANDS =     -1756.98135464
  atomic energy  EATOM  =     27444.26252098
  Solvation  Ediel_sol  =         0.00000000
  ---------------------------------------------------
  free energy    TOTEN  =      -238.94281678 eV

  energy without entropy =     -238.96474557  energy(sigma->0) =     -238.94829898


--------------------------------------------------------------------------------------------------------




----------------------------------------- Iteration    1(  10)  ---------------------------------------


    POTLOK:  cpu time   19.5997: real time   18.7113
    SETDIJ:  cpu time    0.2694: real time    0.0501
    EDDIAG:  cpu time  238.3014: real time   14.3953
  RMM-DIIS:  cpu time  701.5449: real time   40.9649
    ORTHCH:  cpu time  397.7549: real time   25.1474
       DOS:  cpu time    0.8673: real time    0.0598
    CHARGE:  cpu time   17.2139: real time    8.7756
    MIXING:  cpu time    0.2157: real time    0.0270
    --------------------------------------------
      LOOP:  cpu time 1375.7777: real time  108.1322

 eigenvalue-minimisations  : 16834
 total energy-change (2. order) : 0.3827312E+01  (-0.6434920E+00)
 number of electron     394.9999900 magnetization 
 augmentation part      112.7631503 magnetization 

 Broyden mixing:
  rms(total) = 0.66956E+00    rms(broyden)= 0.66941E+00
  rms(prec ) = 0.77646E+00
  weight for this iteration     100.00

 eigenvalues of (default mixing * dielectric matrix)
  average eigenvalue GAMMA=   1.0095
  2.9210  0.9863  0.7100  0.1240  0.3061

 Free energy of the ion-electron system (eV)
  ---------------------------------------------------
  alpha Z        PSCENC =      1279.83449570
  Ewald energy   TEWEN  =    165080.78170411
  -Hartree energ DENC   =   -193453.68427042
  -exchange      EXHF   =         0.00000000
  -V(xc)+E(xc)   XCENC  =       197.63994978
  PAW double counting   =     21508.32894773   -20561.45002969
  entropy T*S    EENTRO =        -0.05022178
  eigenvalues    EBANDS =     -1730.77860127
  atomic energy  EATOM  =     27444.26252098
  Solvation  Ediel_sol  =         0.00000000
  ---------------------------------------------------
  free energy    TOTEN  =      -235.11550485 eV

  energy without entropy =     -235.06528307  energy(sigma->0) =     -235.10294941


--------------------------------------------------------------------------------------------------------




----------------------------------------- Iteration    1(  11)  ---------------------------------------


    POTLOK:  cpu time   19.4672: real time   18.6317
    SETDIJ:  cpu time    0.4118: real time    0.0717
    EDDIAG:  cpu time  244.9439: real time   16.6983
  RMM-DIIS:  cpu time  641.5604: real time   39.3792
    ORTHCH:  cpu time  396.6605: real time   24.2690
       DOS:  cpu time    1.3226: real time    0.0821
    CHARGE:  cpu time   16.8936: real time    8.6912
    MIXING:  cpu time    0.2363: real time    0.0295
    --------------------------------------------
      LOOP:  cpu time 1321.5061: real time  107.8536

 eigenvalue-minimisations  : 17101
 total energy-change (2. order) : 0.6841173E+00  (-0.1677288E+00)
 number of electron     394.9999896 magnetization 
 augmentation part      113.3957351 magnetization 

 Broyden mixing:
  rms(total) = 0.34975E+00    rms(broyden)= 0.34971E+00
  rms(prec ) = 0.37905E+00
  weight for this iteration     100.00

 eigenvalues of (default mixing * dielectric matrix)
  average eigenvalue GAMMA=   1.0692
  3.0299  1.1980  1.1980  0.1239  0.3086  0.5569

 Free energy of the ion-electron system (eV)
  ---------------------------------------------------
  alpha Z        PSCENC =      1279.83449570
  Ewald energy   TEWEN  =    165080.78170411
  -Hartree energ DENC   =   -193492.81537063
  -exchange      EXHF   =         0.00000000
  -V(xc)+E(xc)   XCENC  =       197.48702956
  PAW double counting   =     21613.60006106   -20665.79847160
  entropy T*S    EENTRO =        -0.03879718
  eigenvalues    EBANDS =     -1691.74455957
  atomic energy  EATOM  =     27444.26252098
  Solvation  Ediel_sol  =         0.00000000
  ---------------------------------------------------
  free energy    TOTEN  =      -234.43138757 eV

  energy without entropy =     -234.39259039  energy(sigma->0) =     -234.42168828


--------------------------------------------------------------------------------------------------------




----------------------------------------- Iteration    1(  12)  ---------------------------------------


    POTLOK:  cpu time   18.9000: real time   18.0722
    SETDIJ:  cpu time    0.3514: real time    0.0638
    EDDIAG:  cpu time  268.9187: real time   18.2595
  RMM-DIIS:  cpu time  653.4263: real time   41.6900
    ORTHCH:  cpu time  378.5467: real time   23.0535
       DOS:  cpu time    0.7580: real time    0.0284
    CHARGE:  cpu time   18.7417: real time    8.3320
    MIXING:  cpu time    0.2007: real time    0.0256
    --------------------------------------------
      LOOP:  cpu time 1339.8568: real time  109.5259

 eigenvalue-minimisations  : 19003
 total energy-change (2. order) :-0.3392372E-01  (-0.6638460E-01)
 number of electron     394.9999892 magnetization 
 augmentation part      113.7981700 magnetization 

 Broyden mixing:
  rms(total) = 0.25235E+00    rms(broyden)= 0.25233E+00
  rms(prec ) = 0.27314E+00
  weight for this iteration     100.00

 eigenvalues of (default mixing * dielectric matrix)
  average eigenvalue GAMMA=   1.1498
  2.7555  2.1932  1.1437  0.9408  0.1239  0.3085  0.5828

 Free energy of the ion-electron system (eV)
  ---------------------------------------------------
  alpha Z        PSCENC =      1279.83449570
  Ewald energy   TEWEN  =    165080.78170411
  -Hartree energ DENC   =   -193537.04917013
  -exchange      EXHF   =         0.00000000
  -V(xc)+E(xc)   XCENC  =       197.64532937
  PAW double counting   =     21697.67112734   -20744.18279864
  entropy T*S    EENTRO =        -0.02992326
  eigenvalues    EBANDS =     -1653.39859677
  atomic energy  EATOM  =     27444.26252098
  Solvation  Ediel_sol  =         0.00000000
  ---------------------------------------------------
  free energy    TOTEN  =      -234.46531129 eV

  energy without entropy =     -234.43538803  energy(sigma->0) =     -234.45783047


--------------------------------------------------------------------------------------------------------




----------------------------------------- Iteration    1(  13)  ---------------------------------------


    POTLOK:  cpu time   19.0341: real time   18.1734
    SETDIJ:  cpu time    0.2577: real time    0.0792
    EDDIAG:  cpu time  254.2292: real time   19.7015
  RMM-DIIS:  cpu time  663.8452: real time   40.7987
    ORTHCH:  cpu time  366.8483: real time   23.0970
       DOS:  cpu time    0.9410: real time    0.0299
    CHARGE:  cpu time   19.4269: real time    8.1278
    MIXING:  cpu time    0.2620: real time    0.0327
    --------------------------------------------
      LOOP:  cpu time 1324.8586: real time  110.0412

 eigenvalue-minimisations  : 19075
 total energy-change (2. order) :-0.3818971E-01  (-0.1625581E-01)
 number of electron     394.9999894 magnetization 
 augmentation part      113.9431464 magnetization 

 Broyden mixing:
  rms(total) = 0.19933E+00    rms(broyden)= 0.19932E+00
  rms(prec ) = 0.22029E+00
  weight for this iteration     100.00

 eigenvalues of (default mixing * dielectric matrix)
  average eigenvalue GAMMA=   1.2530
  3.1727  3.1727  1.1538  0.9835  0.1239  0.3084  0.6238  0.4849

 Free energy of the ion-electron system (eV)
  ---------------------------------------------------
  alpha Z        PSCENC =      1279.83449570
  Ewald energy   TEWEN  =    165080.78170411
  -Hartree energ DENC   =   -193562.66852339
  -exchange      EXHF   =         0.00000000
  -V(xc)+E(xc)   XCENC  =       197.90242461
  PAW double counting   =     21743.89448328   -20785.56917287
  entropy T*S    EENTRO =        -0.03501584
  eigenvalues    EBANDS =     -1632.90641758
  atomic energy  EATOM  =     27444.26252098
  Solvation  Ediel_sol  =         0.00000000
  ---------------------------------------------------
  free energy    TOTEN  =      -234.50350100 eV

  energy without entropy =     -234.46848516  energy(sigma->0) =     -234.49474704


--------------------------------------------------------------------------------------------------------




----------------------------------------- Iteration    1(  14)  ---------------------------------------


    POTLOK:  cpu time   19.6013: real time   18.7924
    SETDIJ:  cpu time    0.3656: real time    0.0868
    EDDIAG:  cpu time  274.4975: real time   20.6292
  RMM-DIIS:  cpu time  607.4201: real time   40.4691
    ORTHCH:  cpu time  418.0912: real time   25.7298
       DOS:  cpu time    1.5490: real time    0.0507
    CHARGE:  cpu time   18.7407: real time    8.1780
    MIXING:  cpu time    0.2432: real time    0.0304
    --------------------------------------------
      LOOP:  cpu time 1340.5215: real time  113.9675

 eigenvalue-minimisations  : 16583
 total energy-change (2. order) : 0.1859497E-01  (-0.1190035E-01)
 number of electron     394.9999894 magnetization 
 augmentation part      114.0114785 magnetization 

 Broyden mixing:
  rms(total) = 0.99938E-01    rms(broyden)= 0.99930E-01
  rms(prec ) = 0.11240E+00
  weight for this iteration     100.00

 eigenvalues of (default mixing * dielectric matrix)
  average eigenvalue GAMMA=   1.3170
  3.4557  3.4557  1.2861  1.0857  1.0857  0.1239  0.3085  0.5854  0.4661

 Free energy of the ion-electron system (eV)
  ---------------------------------------------------
  alpha Z        PSCENC =      1279.83449570
  Ewald energy   TEWEN  =    165080.78170411
  -Hartree energ DENC   =   -193602.27787751
  -exchange      EXHF   =         0.00000000
  -V(xc)+E(xc)   XCENC  =       198.37177779
  PAW double counting   =     21801.06336727   -20835.97880760
  entropy T*S    EENTRO =        -0.03150139
  eigenvalues    EBANDS =     -1600.51058539
  atomic energy  EATOM  =     27444.26252098
  Solvation  Ediel_sol  =         0.00000000
  ---------------------------------------------------
  free energy    TOTEN  =      -234.48490603 eV

  energy without entropy =     -234.45340464  energy(sigma->0) =     -234.47703068


--------------------------------------------------------------------------------------------------------




----------------------------------------- Iteration    1(  15)  ---------------------------------------


    POTLOK:  cpu time   19.4192: real time   18.6329
    SETDIJ:  cpu time    0.2606: real time    0.0784
    EDDIAG:  cpu time  255.1514: real time   18.2793
  RMM-DIIS:  cpu time  703.2571: real time   41.6122
    ORTHCH:  cpu time  397.9327: real time   20.1409
       DOS:  cpu time    0.8760: real time    0.0303
    CHARGE:  cpu time   19.3157: real time    8.0306
    MIXING:  cpu time    0.2682: real time    0.0335
    --------------------------------------------
      LOOP:  cpu time 1396.4927: real time  106.8390

 eigenvalue-minimisations  : 18513
 total energy-change (2. order) : 0.2033489E-01  (-0.5131427E-02)
 number of electron     394.9999894 magnetization 
 augmentation part      113.9997679 magnetization 

 Broyden mixing:
  rms(total) = 0.62726E-01    rms(broyden)= 0.62722E-01
  rms(prec ) = 0.68130E-01
  weight for this iteration     100.00

 eigenvalues of (default mixing * dielectric matrix)
  average eigenvalue GAMMA=   1.4287
  4.2762  2.7250  2.7250  1.0791  1.0791  0.9151  0.1239  0.3085  0.5914  0.4638

 Free energy of the ion-electron system (eV)
  ---------------------------------------------------
  alpha Z        PSCENC =      1279.83449570
  Ewald energy   TEWEN  =    165080.78170411
  -Hartree energ DENC   =   -193630.14019659
  -exchange      EXHF   =         0.00000000
  -V(xc)+E(xc)   XCENC  =       198.69572895
  PAW double counting   =     21826.30244073   -20859.42186966
  entropy T*S    EENTRO =        -0.03248446
  eigenvalues    EBANDS =     -1574.74691090
  atomic energy  EATOM  =     27444.26252098
  Solvation  Ediel_sol  =         0.00000000
  ---------------------------------------------------
  free energy    TOTEN  =      -234.46457113 eV

  energy without entropy =     -234.43208668  energy(sigma->0) =     -234.45645002


--------------------------------------------------------------------------------------------------------




----------------------------------------- Iteration    1(  16)  ---------------------------------------


    POTLOK:  cpu time   20.9489: real time   20.1230
    SETDIJ:  cpu time    0.2929: real time    0.0804
    EDDIAG:  cpu time  226.4633: real time   14.6935
  RMM-DIIS:  cpu time  650.1016: real time   39.1753
    ORTHCH:  cpu time  339.1997: real time   15.8782
       DOS:  cpu time    1.5019: real time    0.0503
    CHARGE:  cpu time   18.4711: real time    7.7089
    MIXING:  cpu time    0.2638: real time    0.0330
    --------------------------------------------
      LOOP:  cpu time 1257.2553: real time   97.7435

 eigenvalue-minimisations  : 17089
 total energy-change (2. order) :-0.1642874E-02  (-0.2353392E-02)
 number of electron     394.9999895 magnetization 
 augmentation part      113.9620722 magnetization 

 Broyden mixing:
  rms(total) = 0.44640E-01    rms(broyden)= 0.44637E-01
  rms(prec ) = 0.54115E-01
  weight for this iteration     100.00

 eigenvalues of (default mixing * dielectric matrix)
  average eigenvalue GAMMA=   1.4823
  4.7267  3.0030  3.0030  1.1908  1.0525  1.0525  0.1239  0.3085  0.7856  0.5955
  0.4639

 Free energy of the ion-electron system (eV)
  ---------------------------------------------------
  alpha Z        PSCENC =      1279.83449570
  Ewald energy   TEWEN  =    165080.78170411
  -Hartree energ DENC   =   -193641.06441337
  -exchange      EXHF   =         0.00000000
  -V(xc)+E(xc)   XCENC  =       198.84186346
  PAW double counting   =     21816.74574492   -20851.72932243
  entropy T*S    EENTRO =        -0.03394882
  eigenvalues    EBANDS =     -1562.10485858
  atomic energy  EATOM  =     27444.26252098
  Solvation  Ediel_sol  =         0.00000000
  ---------------------------------------------------
  free energy    TOTEN  =      -234.46621401 eV

  energy without entropy =     -234.43226519  energy(sigma->0) =     -234.45772680


--------------------------------------------------------------------------------------------------------




----------------------------------------- Iteration    1(  17)  ---------------------------------------


    POTLOK:  cpu time   21.7439: real time   20.9503
    SETDIJ:  cpu time    0.3677: real time    0.0815
    EDDIAG:  cpu time  228.9341: real time   14.7141
  RMM-DIIS:  cpu time  557.9041: real time   35.1702
    ORTHCH:  cpu time  353.9532: real time   16.8286
       DOS:  cpu time    1.4832: real time    0.0484
    CHARGE:  cpu time   18.5432: real time    7.7484
    MIXING:  cpu time    0.2859: real time    0.0357
    --------------------------------------------
      LOOP:  cpu time 1183.2390: real time   95.5785

 eigenvalue-minimisations  : 17179
 total energy-change (2. order) :-0.1337219E-02  (-0.1260741E-02)
 number of electron     394.9999895 magnetization 
 augmentation part      113.9280396 magnetization 

 Broyden mixing:
  rms(total) = 0.30869E-01    rms(broyden)= 0.30867E-01
  rms(prec ) = 0.34897E-01
  weight for this iteration     100.00

 eigenvalues of (default mixing * dielectric matrix)
  average eigenvalue GAMMA=   1.4807
  4.9608  3.0236  3.0236  1.5366  1.1146  1.1146  0.1239  0.3085  0.8296  0.4638
  0.5806  0.6884

 Free energy of the ion-electron system (eV)
  ---------------------------------------------------
  alpha Z        PSCENC =      1279.83449570
  Ewald energy   TEWEN  =    165080.78170411
  -Hartree energ DENC   =   -193646.96455759
  -exchange      EXHF   =         0.00000000
  -V(xc)+E(xc)   XCENC  =       198.92791979
  PAW double counting   =     21800.12166118   -20836.22035810
  entropy T*S    EENTRO =        -0.03456005
  eigenvalues    EBANDS =     -1555.17637726
  atomic energy  EATOM  =     27444.26252098
  Solvation  Ediel_sol  =         0.00000000
  ---------------------------------------------------
  free energy    TOTEN  =      -234.46755123 eV

  energy without entropy =     -234.43299118  energy(sigma->0) =     -234.45891121


--------------------------------------------------------------------------------------------------------




----------------------------------------- Iteration    1(  18)  ---------------------------------------


    POTLOK:  cpu time   19.7790: real time   18.9867
    SETDIJ:  cpu time    0.2607: real time    0.0827
    EDDIAG:  cpu time  214.5814: real time   13.9843
  RMM-DIIS:  cpu time  555.9567: real time   34.4860
    ORTHCH:  cpu time  358.8453: real time   15.2577
       DOS:  cpu time    2.1373: real time    0.0679
    CHARGE:  cpu time   17.8706: real time    7.7701
    MIXING:  cpu time    0.3104: real time    0.0388
    --------------------------------------------
      LOOP:  cpu time 1169.7593: real time   90.6754

 eigenvalue-minimisations  : 18638
 total energy-change (2. order) :-0.9498856E-04  (-0.3222793E-03)
 number of electron     394.9999894 magnetization 
 augmentation part      113.9204950 magnetization 

 Broyden mixing:
  rms(total) = 0.22182E-01    rms(broyden)= 0.22180E-01
  rms(prec ) = 0.24187E-01
  weight for this iteration     100.00

 eigenvalues of (default mixing * dielectric matrix)
  average eigenvalue GAMMA=   1.5868
  5.5168  3.6385  2.7273  2.7273  1.1218  1.1218  0.1239  0.9306  0.8555  0.3085
  0.5932  0.4636  0.5000

 Free energy of the ion-electron system (eV)
  ---------------------------------------------------
  alpha Z        PSCENC =      1279.83449570
  Ewald energy   TEWEN  =    165080.78170411
  -Hartree energ DENC   =   -193650.02226404
  -exchange      EXHF   =         0.00000000
  -V(xc)+E(xc)   XCENC  =       198.95987245
  PAW double counting   =     21793.41565381   -20829.49972176
  entropy T*S    EENTRO =        -0.03436467
  eigenvalues    EBANDS =     -1552.16554279
  atomic energy  EATOM  =     27444.26252098
  Solvation  Ediel_sol  =         0.00000000
  ---------------------------------------------------
  free energy    TOTEN  =      -234.46764622 eV

  energy without entropy =     -234.43328155  energy(sigma->0) =     -234.45905505


--------------------------------------------------------------------------------------------------------




----------------------------------------- Iteration    1(  19)  ---------------------------------------


    POTLOK:  cpu time   20.8003: real time   20.0521
    SETDIJ:  cpu time    0.2710: real time    0.0798
    EDDIAG:  cpu time  204.2250: real time   14.0518
  RMM-DIIS:  cpu time  559.4868: real time   30.9798
    ORTHCH:  cpu time  306.0939: real time   11.8181
       DOS:  cpu time    0.8969: real time    0.0303
    CHARGE:  cpu time   18.6763: real time    7.7015
    MIXING:  cpu time    0.2900: real time    0.0363
    --------------------------------------------
      LOOP:  cpu time 1110.7521: real time   84.7505

 eigenvalue-minimisations  : 16325
 total energy-change (2. order) :-0.4224094E-03  (-0.2779603E-03)
 number of electron     394.9999894 magnetization 
 augmentation part      113.9316950 magnetization 

 Broyden mixing:
  rms(total) = 0.13750E-01    rms(broyden)= 0.13748E-01
  rms(prec ) = 0.15441E-01
  weight for this iteration     100.00

 eigenvalues of (default mixing * dielectric matrix)
  average eigenvalue GAMMA=   1.6450
  6.1887  4.1071  2.8796  2.8796  0.1239  1.1400  1.1400  1.0698  0.3085  0.8310
  0.8310  0.5875  0.4635  0.4801

 Free energy of the ion-electron system (eV)
  ---------------------------------------------------
  alpha Z        PSCENC =      1279.83449570
  Ewald energy   TEWEN  =    165080.78170411
  -Hartree energ DENC   =   -193653.62977300
  -exchange      EXHF   =         0.00000000
  -V(xc)+E(xc)   XCENC  =       198.98127455
  PAW double counting   =     21788.19601873   -20823.91604630
  entropy T*S    EENTRO =        -0.03366080
  eigenvalues    EBANDS =     -1548.94460260
  atomic energy  EATOM  =     27444.26252098
  Solvation  Ediel_sol  =         0.00000000
  ---------------------------------------------------
  free energy    TOTEN  =      -234.46806863 eV

  energy without entropy =     -234.43440783  energy(sigma->0) =     -234.45965343


--------------------------------------------------------------------------------------------------------




----------------------------------------- Iteration    1(  20)  ---------------------------------------


    POTLOK:  cpu time   21.4698: real time   20.6899
    SETDIJ:  cpu time    0.2855: real time    0.0877
    EDDIAG:  cpu time  220.6774: real time   16.1294
  RMM-DIIS:  cpu time  524.2190: real time   31.8823
    ORTHCH:  cpu time  319.7870: real time   12.7155
[...]
    210       0.6073      0.00000
    211       0.8407      0.00000
    212       1.0904      0.00000
    213       1.3639      0.00000
    214       1.4696      0.00000
    215       1.5127      0.00000
    216       1.5175      0.00000
    217       1.5420      0.00000
    218       1.6990      0.00000
    219       1.8828      0.00000
    220       1.9774      0.00000
    221       1.9875      0.00000
    222       2.0233      0.00000
    223       2.2103      0.00000
    224       2.3520      0.00000
    225       2.3739      0.00000
    226       2.4533      0.00000
    227       2.5276      0.00000
    228       2.7186      0.00000
    229       2.7862      0.00000
    230       3.0165      0.00000
    231       3.0306      0.00000
    232       3.1206      0.00000
    233       3.3562      0.00000
    234       3.4650      0.00000
    235       3.4957      0.00000
    236       3.6791      0.00000
    237       4.0799      0.00000
    238       4.1551      0.00000


--------------------------------------------------------------------------------------------------------


 soft charge-density along one line, spin component           1
         0         1         2         3         4         5         6         7         8         9
 total charge-density along one line
 
 pseudopotential strength for first ion, spin component:           1
-10.423  -0.001  -0.001  -0.011   0.000   0.131   0.000   0.000
 -0.001 -10.313   0.000   0.001  -0.012   0.000   0.118  -0.000
 -0.001   0.000 -10.303  -0.001  -0.000   0.000  -0.000   0.116
 -0.011   0.001  -0.001 -10.312  -0.001   0.001  -0.000   0.000
  0.000  -0.012  -0.000  -0.001 -10.423  -0.000   0.001   0.000
  0.131   0.000   0.000   0.001  -0.000   0.182  -0.000  -0.000
  0.000   0.118  -0.000  -0.000   0.001  -0.000   0.184   0.000
  0.000  -0.000   0.116   0.000   0.000  -0.000   0.000   0.184
  0.001  -0.000   0.000   0.117   0.000  -0.000   0.000  -0.000
 -0.000   0.001   0.000   0.000   0.131   0.000  -0.000  -0.000
 -0.000  -0.000  -0.033   0.000  -0.000   0.000   0.000   0.003
  0.000   0.000   0.002  -0.000   0.000  -0.000  -0.000  -0.000
 -0.000  -0.002   0.000   0.000   0.001   0.000   0.001  -0.000
  0.000  -0.000  -0.005  -0.000  -0.000  -0.000   0.000   0.001
  0.000   0.000   0.000  -0.002  -0.000   0.000  -0.000  -0.000
  0.000   0.004  -0.000  -0.000  -0.000  -0.000  -0.001   0.000
 -0.000   0.000   0.005   0.000  -0.000   0.000  -0.000  -0.001
 -0.000  -0.000  -0.000   0.004   0.000  -0.000   0.000   0.000
 total augmentation occupancy for first ion, spin component:           1
  1.650  -0.001  -0.002  -0.055   0.000   0.126   0.001   0.001   0.038  -0.000  -0.002  -0.001   0.000   0.001   0.001  -0.000
 -0.001   1.832   0.000   0.001  -0.057   0.001  -0.022   0.000  -0.000   0.042  -0.000  -0.000  -0.011   0.001  -0.000  -0.001
 -0.002   0.000   1.771  -0.002  -0.001   0.001   0.000   0.030   0.001   0.000   0.044  -0.006   0.002   0.033   0.002  -0.000
 -0.055   0.001  -0.002   1.833  -0.001   0.041  -0.000   0.001  -0.022   0.000   0.002   0.001   0.000   0.000  -0.010   0.000
  0.000  -0.057  -0.001  -0.001   1.648  -0.000   0.039   0.000   0.001   0.127  -0.000  -0.000   0.001   0.000   0.000   0.000
  0.126   0.001   0.001   0.041  -0.000   0.209  -0.000  -0.000   0.003   0.000   0.001   0.000  -0.000  -0.000   0.011  -0.000
  0.001  -0.022   0.000  -0.000   0.039  -0.000   0.180  -0.000   0.000   0.003   0.000  -0.000   0.057  -0.000   0.000  -0.003
  0.001   0.000   0.030   0.001   0.000  -0.000  -0.000   0.234  -0.001  -0.000  -0.168   0.029  -0.001   0.085  -0.001   0.000
  0.038  -0.000   0.001  -0.022   0.001   0.003   0.000  -0.001   0.180  -0.000   0.001  -0.000  -0.000  -0.000   0.056  -0.000
 -0.000   0.042   0.000   0.000   0.127   0.000   0.003  -0.000  -0.000   0.208  -0.000  -0.000   0.011  -0.000  -0.000  -0.000
 -0.002  -0.000   0.044   0.002  -0.000   0.001   0.000  -0.168   0.001  -0.000   1.129  -0.293   0.001   0.064   0.001  -0.000
 -0.001  -0.000  -0.006   0.001  -0.000   0.000  -0.000   0.029  -0.000  -0.000  -0.293   0.124  -0.000  -0.054   0.000   0.000
  0.000  -0.011   0.002   0.000   0.001  -0.000   0.057  -0.001  -0.000   0.011   0.001  -0.000   0.173  -0.001  -0.000  -0.007
  0.001   0.001   0.033   0.000   0.000  -0.000  -0.000   0.085  -0.000  -0.000   0.064  -0.054  -0.001   0.096  -0.001   0.000
  0.001  -0.000   0.002  -0.010   0.000   0.011   0.000  -0.001   0.056  -0.000   0.001   0.000  -0.000  -0.001   0.174   0.000
 -0.000  -0.001  -0.000   0.000   0.000  -0.000  -0.003   0.000  -0.000  -0.000  -0.000   0.000  -0.007   0.000   0.000   0.000
 -0.000  -0.000  -0.007  -0.000  -0.000  -0.000   0.000  -0.003   0.000  -0.000  -0.005   0.003   0.000  -0.004   0.000  -0.000
  0.000   0.000   0.000  -0.001  -0.000  -0.000  -0.000   0.000  -0.003  -0.000  -0.000   0.000   0.000   0.000  -0.007  -0.000


------------------------ aborting loop because EDIFF is reached ----------------------------------------


    CHARGE:  cpu time   16.5540: real time    7.3490
    FORLOC:  cpu time    1.2615: real time    0.2062
    FORNL :  cpu time    6.9857: real time    6.0223
    FORCOR:  cpu time   22.2403: real time   20.3128
    FORHAR:  cpu time    0.4148: real time    0.4146
    MIXING:  cpu time    0.0860: real time    0.0859
    OFIELD:  cpu time    0.0001: real time    0.0000

 VOLUME and BASIS-vectors are now :
 -----------------------------------------------------------------------------
  energy-cutoff  :      396.00
  volume of cell :     1665.84
      direct lattice vectors                 reciprocal lattice vectors
     8.455582619  0.000000000  0.000000000     0.118265062 -0.068280376  0.000000000
     4.227791797  7.322749070  0.000000000     0.000000000  0.136560736  0.000000000
     0.000000000  0.000000000 26.903955460     0.000000000  0.000000000  0.037169256

  length of vectors
     8.455582619  8.455582619 26.903955460     0.136560736  0.136560736  0.037169256


 FORCES acting on ions
    electron-ion (+dipol)            ewald-force                    non-local-force                 convergence-correction
 -----------------------------------------------------------------------------------------------
   -.440E+00 0.237E-01 0.274E+04   0.497E+00 -.121E-01 -.274E+04   -.247E-01 0.492E-02 0.117E+00   -.150E-03 0.866E-03 0.233E-02
   -.862E-01 0.108E+00 0.273E+04   0.861E-01 -.134E+00 -.273E+04   -.374E-03 0.565E-01 0.245E+00   0.377E-03 -.572E-03 0.224E-02
   0.521E+00 0.987E-01 0.274E+04   -.583E+00 -.842E-01 -.274E+04   0.267E-01 0.547E-02 0.113E+00   -.220E-03 -.110E-02 0.246E-02
   -.196E+00 0.377E+00 0.274E+04   0.192E+00 -.334E+00 -.274E+04   0.229E-01 -.324E-01 0.224E+00   -.114E-02 0.606E-03 0.280E-02
   0.218E+00 0.479E+00 0.274E+04   -.210E+00 -.433E+00 -.274E+04   -.237E-01 -.315E-01 0.225E+00   -.423E-03 -.729E-03 0.160E-02
   -.237E-01 -.313E-01 0.274E+04   0.185E-01 0.855E-01 -.274E+04   0.464E-04 -.314E-01 0.821E-01   0.155E-02 0.259E-03 0.233E-02
   0.103E+00 -.337E-01 0.274E+04   -.958E-01 0.364E-02 -.274E+04   -.277E-02 -.189E-02 0.202E+00   -.189E-02 0.318E-03 0.230E-02
   -.371E+00 -.457E+00 0.274E+04   0.357E+00 0.429E+00 -.274E+04   -.588E-02 0.203E-01 0.947E-01   0.141E-02 0.521E-03 0.170E-02
   0.267E+00 -.498E+00 0.274E+04   -.261E+00 0.474E+00 -.274E+04   0.861E-02 0.202E-01 0.933E-01   0.482E-03 -.193E-03 0.301E-02
   -.169E+01 0.287E+01 0.110E+04   0.175E+01 -.292E+01 -.110E+04   0.289E-01 -.503E-01 0.676E-02   -.631E-03 0.114E-02 0.386E-02
   0.138E+01 0.393E+01 0.110E+04   -.143E+01 -.398E+01 -.110E+04   -.234E-01 -.536E-01 0.159E-01   -.303E-03 -.180E-02 0.341E-02
   0.150E+00 0.395E-01 0.111E+04   -.155E+00 -.619E-01 -.111E+04   0.711E-02 0.203E-01 0.137E-01   0.948E-03 0.479E-04 0.176E-02
   0.540E+00 0.325E+01 0.110E+04   -.540E+00 -.323E+01 -.110E+04   -.798E-03 -.364E-01 -.213E-01   -.300E-02 -.156E-03 0.433E-02
   -.139E+01 -.943E-01 0.111E+04   0.137E+01 0.783E-01 -.111E+04   0.241E-01 0.135E-02 0.523E-01   0.161E-02 0.362E-03 0.351E-02
   0.797E+00 -.554E+00 0.111E+04   -.779E+00 0.545E+00 -.111E+04   -.147E-01 0.198E-02 0.533E-01   0.137E-02 0.919E-03 0.399E-02
   -.392E+01 -.246E+01 0.111E+04   0.390E+01 0.246E+01 -.111E+04   0.490E-01 -.170E-01 0.163E-01   0.823E-04 0.109E-02 0.281E-02
   -.946E+00 -.308E+01 0.110E+04   0.956E+00 0.315E+01 -.110E+04   0.300E-02 0.312E-02 0.168E+00   0.199E-02 -.458E-03 0.452E-02
   0.480E+01 -.251E+01 0.110E+04   -.478E+01 0.251E+01 -.110E+04   -.432E-01 -.215E-01 0.266E-01   -.208E-02 -.115E-02 0.266E-02
   0.117E+00 -.371E+00 -.535E+03   -.107E+00 -.298E-01 0.535E+03   -.102E-01 0.374E+00 0.175E+00   -.191E-02 0.180E-02 0.825E-02
   0.586E+01 0.629E+01 -.528E+03   -.574E+01 -.614E+01 0.528E+03   -.814E-01 -.155E+00 0.242E-02   -.131E-02 0.255E-03 0.109E-01
   -.587E+01 0.557E+01 -.528E+03   0.574E+01 -.542E+01 0.528E+03   0.825E-01 -.164E+00 -.669E-04   0.317E-02 0.165E-02 0.103E-01
   0.110E+02 0.358E+01 -.519E+03   -.108E+02 -.352E+01 0.519E+03   -.212E+00 -.446E-01 0.550E-01   -.129E-02 -.143E-02 0.112E-01
   -.924E+00 0.109E+01 -.533E+03   0.930E+00 -.108E+01 0.533E+03   -.713E-02 -.435E-01 -.205E+00   0.182E-02 0.927E-03 0.852E-02
   -.101E+02 0.297E+01 -.523E+03   0.988E+01 -.289E+01 0.523E+03   0.225E+00 -.594E-01 0.506E-01   -.632E-03 -.286E-02 0.901E-02
   0.869E+00 -.121E+02 -.548E+03   -.578E+00 0.120E+02 0.548E+03   -.304E+00 0.101E+00 -.226E+00   0.679E-03 0.829E-03 0.938E-02
   -.170E+01 -.114E+02 -.555E+03   0.140E+01 0.113E+02 0.556E+03   0.304E+00 0.102E+00 -.254E+00   -.730E-03 -.997E-03 0.828E-02
   0.769E+00 0.644E+00 -.522E+03   -.778E+00 -.715E+00 0.521E+03   0.646E-02 0.594E-01 0.200E+00   -.539E-04 -.524E-03 0.118E-01
   -.329E+02 0.739E+01 -.218E+04   0.337E+02 -.791E+01 0.218E+04   -.733E+00 0.495E+00 0.247E+00   -.439E-02 0.256E-02 -.168E-02
   0.337E+02 0.950E+01 -.218E+04   -.345E+02 -.101E+02 0.218E+04   0.754E+00 0.540E+00 0.284E+00   0.183E-02 0.245E-02 -.225E-02
   -.316E+00 0.932E+02 -.208E+04   0.360E+00 -.948E+02 0.208E+04   -.513E-01 0.154E+01 0.967E+00   0.230E-02 0.459E-03 0.162E-02
   0.816E+02 -.960E+01 -.203E+04   -.830E+02 0.102E+02 0.203E+04   0.144E+01 -.579E+00 0.190E+01   -.774E-03 0.786E-03 0.240E-02
   -.858E+02 -.114E+02 -.204E+04   0.874E+02 0.120E+02 0.204E+04   -.149E+01 -.594E+00 0.188E+01   0.687E-03 -.266E-02 -.131E-02
   0.146E+01 -.355E+01 -.222E+04   -.148E+01 0.362E+01 0.222E+04   0.955E-02 -.809E-01 -.376E+00   0.447E-04 0.206E-02 0.206E-03
   0.344E+02 -.646E+01 -.221E+04   -.347E+02 0.655E+01 0.221E+04   0.335E+00 -.569E-01 -.260E+00   -.159E-02 -.891E-03 0.291E-03
   -.387E+01 -.814E+02 -.214E+04   0.387E+01 0.834E+02 0.214E+04   -.987E-02 -.201E+01 -.667E+00   -.130E-02 -.283E-02 -.999E-03
   -.322E+02 -.550E+01 -.221E+04   0.325E+02 0.559E+01 0.221E+04   -.304E+00 -.565E-01 -.285E+00   0.248E-02 -.155E-02 -.448E-04
   0.120E+03 0.803E+02 -.119E+04   -.121E+03 -.813E+02 0.119E+04   0.690E+00 0.102E+01 -.343E+01   -.339E-04 0.243E-03 -.192E-02
   -.185E+01 0.140E+03 -.118E+04   0.190E+01 -.142E+03 0.118E+04   -.402E-01 0.204E+01 -.102E+01   0.886E-03 -.121E-02 -.148E-02
   0.131E+03 -.447E+02 -.119E+04   -.133E+03 0.460E+02 0.119E+04   0.176E+01 -.134E+01 -.197E+01   -.532E-03 0.194E-03 -.197E-02
   -.121E+03 0.782E+02 -.119E+04   0.122E+03 -.793E+02 0.119E+04   -.668E+00 0.107E+01 -.340E+01   0.695E-03 -.111E-02 -.203E-02
   0.147E+01 -.551E+02 -.119E+04   -.153E+01 0.559E+02 0.119E+04   0.426E-01 -.854E+00 -.350E+01   -.126E-02 -.131E-02 -.229E-02
   -.129E+03 -.489E+02 -.119E+04   0.131E+03 0.503E+02 0.119E+04   -.165E+01 -.141E+01 -.207E+01   -.667E-03 -.207E-02 -.934E-03
   0.222E+01 -.133E+03 -.119E+04   -.230E+01 0.135E+03 0.119E+04   0.801E-01 -.255E+01 -.894E+00   -.948E-03 0.397E-03 -.134E-02
   0.556E+02 0.314E+02 -.304E+03   -.606E+02 -.343E+02 0.305E+03   0.504E+01 0.295E+01 -.110E+01   -.716E-04 0.472E-04 -.387E-03
   -.598E+00 0.644E+02 -.311E+03   0.665E+00 -.698E+02 0.313E+03   -.634E-01 0.547E+01 -.202E+01   0.117E-03 0.130E-03 -.333E-03
   0.629E+02 -.275E+02 -.309E+03   -.678E+02 0.302E+02 0.310E+03   0.495E+01 -.273E+01 -.160E+01   0.309E-05 -.244E-04 -.403E-03
   -.565E+02 0.301E+02 -.305E+03   0.616E+02 -.329E+02 0.306E+03   -.510E+01 0.282E+01 -.118E+01   -.275E-03 0.999E-04 -.574E-03
   -.619E+02 -.293E+02 -.309E+03   0.668E+02 0.321E+02 0.311E+03   -.485E+01 -.288E+01 -.170E+01   0.472E-03 -.129E-04 -.459E-04
   -.423E+02 -.375E+02 -.310E+03   0.471E+02 0.402E+02 0.311E+03   -.473E+01 -.265E+01 -.194E+01   0.977E-04 0.258E-03 -.132E-03
   0.442E+02 -.361E+02 -.308E+03   -.491E+02 0.386E+02 0.310E+03   0.490E+01 -.252E+01 -.169E+01   -.401E-03 0.127E-03 -.238E-03
 -----------------------------------------------------------------------------------------------
   -.328E+00 0.231E+01 0.223E+02   -.114E-12 0.497E-13 -.284E-12   0.337E+00 -.233E+01 -.223E+02   -.292E-02 -.425E-02 0.123E+00
 
 
 POSITION                                       TOTAL-FORCE (eV/Angst)
 -----------------------------------------------------------------------------------
      0.00000      0.00000     10.00000         0.032457      0.017906     -0.157709
      2.81853      0.00000     10.00000        -0.000185      0.030494     -0.279947
      5.63706      0.00000     10.00000        -0.036380      0.019451     -0.155338
      9.86485      2.44092     10.00000         0.017279      0.012686     -0.274754
      4.22779      2.44092     10.00000        -0.015875      0.014924     -0.283585
      7.04632      2.44092     10.00000        -0.003717      0.023645     -0.174377
     11.27411      4.88183     10.00000         0.002076     -0.031075     -0.315665
      5.63706      4.88183     10.00000        -0.018472     -0.006758     -0.193728
      8.45558      4.88183     10.00000         0.015441     -0.003646     -0.188070
      1.40926      0.81364     12.30132         0.087350     -0.097936      0.368624
      4.22779      0.81364     12.30132        -0.081831     -0.110956      0.375089
      7.04632      0.81364     12.30132         0.003790     -0.001467      0.226953
      2.81853      3.25455     12.30132        -0.004060     -0.014127      0.160605
      5.63705      3.25455     12.30132         0.005277     -0.013753      0.254913
      8.45558      3.25455     12.30132         0.005035     -0.005603      0.270526
      4.22779      5.69547     12.30132         0.020175     -0.018397      0.167994
      7.04632      5.69547     12.30132         0.014520      0.073846      0.457609
      9.86485      5.69547     12.30132        -0.027682     -0.022167      0.196498
      2.82239      1.59060     14.61688        -0.002613     -0.024187     -0.061617
      5.64653      1.62006     14.60788         0.039496     -0.006459     -0.049418
      8.45185      1.62162     14.60816        -0.042750     -0.008607     -0.052170
      4.23915      4.05984     14.59401        -0.000991      0.020630     -0.046602
      7.04998      4.06173     14.63474         0.000980     -0.025834     -0.008699
      9.85580      4.06204     14.59930        -0.009118      0.022446     -0.041318
      5.65237      6.48914     14.64886        -0.011574      0.002724     -0.022870
      8.44484      6.48761     14.65980         0.009517     -0.003651     -0.013056
     11.27541      6.50064     14.58749        -0.002705     -0.011440     -0.084052
      1.43902      2.42373     16.91580         0.052549     -0.020866     -0.027799
      4.20913      2.42241     16.91611        -0.057422     -0.023006     -0.019086
      7.05228      2.41160     16.98271        -0.004599      0.013041      0.009450
      5.57231      4.89394     16.98330        -0.012814      0.016344     -0.040933
      8.52774      4.89164     17.00917         0.013695      0.012105     -0.050629
      2.82256      4.88414     16.92364        -0.010660     -0.003813     -0.015888
      8.42924      0.00210     16.92564        -0.000123      0.037891     -0.024680
      2.81960      0.04522     17.10863        -0.009147      0.053365     -0.027004
      5.67051      0.00198     16.93215        -0.011341      0.029584     -0.027806
      5.81369      3.61821     19.24216         0.020215      0.013466      0.062939
      7.05514      2.88701     19.17598         0.012066      0.016945      0.005097
      5.77863      5.04371     19.19404         0.000202      0.000077      0.001813
      8.27844      3.65260     19.25301        -0.014799     -0.011545      0.055205
      7.01710      5.80892     19.22735        -0.020513     -0.007536      0.096180
      8.27580      5.07759     19.21583        -0.002178     -0.012239     -0.011416
      6.99787      7.24942     19.25789         0.002591     -0.015802      0.019544
      4.88925      3.07505     19.44938         0.008338      0.009985      0.012427
      7.06737      1.86635     19.57026         0.003087      0.009161     -0.023496
      4.86327      5.55471     19.50554         0.010635      0.000599     -0.016685
      9.21274      3.13266     19.47531        -0.013481      0.014310     -0.006432
      9.17036      5.61310     19.54282         0.019834      0.013546     -0.025242
      3.67318      0.41468     19.63832         0.013519      0.013911     -0.020759
      1.83607      0.38989     19.59246         0.004906      0.007789     -0.000634
 -----------------------------------------------------------------------------------
    total drift:                                0.006517     -0.028539      0.097872


--------------------------------------------------------------------------------------------------------



  FREE ENERGIE OF THE ION-ELECTRON SYSTEM (eV)
  ---------------------------------------------------
  free  energy   TOTEN  =      -234.47174112 eV

  energy  without entropy=     -234.43780457  energy(sigma->0) =     -234.46325698
 
 d Force = 0.8482187E-03[ 0.774E-03, 0.923E-03]  d Energy = 0.8364455E-03 0.118E-04
 d Force =-0.4229408E+01[-0.423E+01,-0.423E+01]  d Ewald  =-0.4229407E+01-0.322E-06


--------------------------------------------------------------------------------------------------------


    POTLOK:  cpu time   20.5545: real time   20.3335


--------------------------------------------------------------------------------------------------------


 Steepest descent step on ions:
 trial-energy change:   -0.000836  1 .order   -0.000848   -0.000923   -0.000774
  (g-gl).g = 0.923E-03      g.g   = 0.923E-03  gl.gl    = 0.000E+00
 g(Force)  = 0.923E-03   g(Stress)= 0.000E+00 ortho     = 0.000E+00
 gamma     =   0.00000
 trial     =   1.00000
 opt step  =   4.00000  (harmonic =   6.19757) maximal distance =0.00415739
 next E    =  -234.473764   (d E  =  -0.00286)


--------------------------------------------------------------------------------------------------------


  
 reached required accuracy - stopping structural energy minimisation
 writing wavefunctions
     LOOP+:  cpu time 7634.9052: real time  533.3416
    4ORBIT:  cpu time    0.0001: real time    0.0000

 total amount of memory used by VASP MPI-rank0  2134755. kBytes
=======================================================================

   base      :      30000. kBytes
   nonlr-proj:      14864. kBytes
   fftplans  :      34337. kBytes
   grid      :      73467. kBytes
   one-center:        777. kBytes
   wavefun   :    1981310. kBytes
 
  
  
 General timing and accounting informations for this job:
 ========================================================
  
                  Total CPU time used (sec):    52864.816
                            User time (sec):    46541.428
                          System time (sec):     6323.389
                         Elapsed time (sec):     3810.054
  
                   Maximum memory used (kb):     3336588.
                   Average memory used (kb):           0.
  
                          Minor page faults:     24106435
                          Major page faults:            0
                 Voluntary context switches:       143614
