       N       E                     dE             d eps       ncg     rms          rms(c)
DAV:   1     0.360215243607E+04    0.36022E+04   -0.14419E+05 16288   0.118E+03
DAV:   2     0.193951460412E+03   -0.34082E+04   -0.31416E+04 16812   0.454E+02
DAV:   3    -0.236178680301E+03   -0.43013E+03   -0.40038E+03 21976   0.132E+02
DAV:   4    -0.269769727402E+03   -0.33591E+02   -0.30346E+02 23408   0.377E+01
DAV:   5    -0.270912718444E+03   -0.11430E+01   -0.11150E+01 21984   0.606E+00    0.283E+01
RMM:   6    -0.262585398779E+03    0.83273E+01   -0.15525E+01 18202   0.729E+00    0.231E+01
RMM:   7    -0.282095645463E+03   -0.19510E+02   -0.22152E+01 18133   0.795E+00    0.322E+01
RMM:   8    -0.262622143254E+03    0.19474E+02   -0.14735E+01 17738   0.700E+00    0.238E+01
RMM:   9    -0.249313161275E+03    0.13309E+02   -0.12247E+01 16355   0.897E+00    0.131E+01
RMM:  10    -0.247161937319E+03    0.21512E+01   -0.35663E+00 18794   0.367E+00    0.776E+00
RMM:  11    -0.246342631936E+03    0.81931E+00   -0.16949E+00 16874   0.299E+00    0.384E+00
RMM:  12    -0.246248204075E+03    0.94428E-01   -0.85083E-01 17043   0.210E+00    0.247E+00
RMM:  13    -0.246266359026E+03   -0.18155E-01   -0.24171E-01 20252   0.909E-01    0.190E+00
RMM:  14    -0.246269794417E+03   -0.34354E-02   -0.89776E-02 16254   0.639E-01    0.108E+00
RMM:  15    -0.246258549523E+03    0.11245E-01   -0.63806E-02 16758   0.568E-01    0.753E-01
RMM:  16    -0.246257461541E+03    0.10880E-02   -0.21571E-02 18748   0.272E-01    0.512E-01
RMM:  17    -0.246262976613E+03   -0.55151E-02   -0.10051E-02 16835   0.188E-01    0.405E-01
RMM:  18    -0.246264081683E+03   -0.11051E-02   -0.77524E-03 16362   0.170E-01    0.246E-01
RMM:  19    -0.246264105574E+03   -0.23890E-04   -0.26262E-03 16282   0.122E-01    0.163E-01
RMM:  20    -0.246263751570E+03    0.35400E-03   -0.26494E-03 16475   0.103E-01    0.107E-01
RMM:  21    -0.246263453403E+03    0.29817E-03   -0.97529E-04 17589   0.663E-02    0.581E-02
RMM:  22    -0.246263309060E+03    0.14434E-03   -0.30105E-04 18926   0.287E-02    0.452E-02
RMM:  23    -0.246263219425E+03    0.89635E-04   -0.34078E-04 16214   0.396E-02    0.234E-02
RMM:  24    -0.246263372732E+03   -0.15331E-03   -0.31077E-04 16505   0.325E-02    0.176E-02
RMM:  25    -0.246263457787E+03   -0.85055E-04   -0.12000E-04 17074   0.181E-02    0.120E-02
RMM:  26    -0.246263546784E+03   -0.88997E-04   -0.75536E-05 16328   0.158E-02    0.688E-03
RMM:  27    -0.246263616384E+03   -0.69600E-04   -0.40514E-05 16356   0.108E-02    0.705E-03
RMM:  28    -0.246263679267E+03   -0.62883E-04   -0.31937E-05 15930   0.956E-03    0.376E-03
RMM:  29    -0.246263714906E+03   -0.35639E-04   -0.19428E-05 15389   0.699E-03    0.236E-03
RMM:  30    -0.246263724270E+03   -0.93645E-05   -0.50928E-06 11962   0.331E-03    0.169E-03
RMM:  31    -0.246263730040E+03   -0.57699E-05   -0.27048E-06 10452   0.280E-03    0.112E-03
RMM:  32    -0.246263732441E+03   -0.24013E-05   -0.11239E-06  9302   0.191E-03    0.743E-04
RMM:  33    -0.246263733199E+03   -0.75800E-06   -0.49708E-07  8961   0.149E-03
   1 F= -.24626373E+03 E0= -.24625695E+03  d E =-.246264E+03
       N       E                     dE             d eps       ncg     rms          rms(c)
DAV:   1    -0.246269620069E+03   -0.58876E-02   -0.22772E-01 17032   0.933E-01    0.607E-02
RMM:   2    -0.246269967197E+03   -0.34713E-03   -0.38636E-03 16239   0.148E-01    0.552E-02
RMM:   3    -0.246269971495E+03   -0.42982E-05   -0.34098E-04 20132   0.476E-02    0.491E-02
RMM:   4    -0.246269942349E+03    0.29146E-04   -0.11916E-04 17283   0.184E-02    0.296E-02
RMM:   5    -0.246269928246E+03    0.14103E-04   -0.93508E-05 18054   0.177E-02    0.135E-02
RMM:   6    -0.246269929590E+03   -0.13434E-05   -0.89892E-06 14473   0.759E-03    0.964E-03
RMM:   7    -0.246269929568E+03    0.21770E-07   -0.14706E-05 16140   0.718E-03    0.469E-03
RMM:   8    -0.246269929565E+03    0.33797E-08   -0.10429E-06  9019   0.315E-03
   2 F= -.24626993E+03 E0= -.24626311E+03  d E =-.619637E-02
       N       E                     dE             d eps       ncg     rms          rms(c)
DAV:   1    -0.246276474111E+03   -0.65445E-02   -0.20507E+00 16424   0.280E+00    0.183E-01
RMM:   2    -0.246278949033E+03   -0.24749E-02   -0.29173E-02 16237   0.428E-01    0.326E-02
RMM:   3    -0.246279248537E+03   -0.29950E-03   -0.29750E-03 22307   0.128E-01    0.104E-02
RMM:   4    -0.246279264139E+03   -0.15602E-04   -0.13520E-04 19628   0.157E-02    0.677E-03
RMM:   5    -0.246279266530E+03   -0.23911E-05   -0.11493E-05 10918   0.632E-03    0.449E-03
RMM:   6    -0.246279269685E+03   -0.31546E-05   -0.42494E-06 10280   0.400E-03    0.337E-03
RMM:   7    -0.246279270781E+03   -0.10965E-05   -0.10327E-06  9162   0.290E-03    0.285E-03
RMM:   8    -0.246279271679E+03   -0.89757E-06   -0.71773E-07  9090   0.248E-03
   3 F= -.24627927E+03 E0= -.24627234E+03  d E =-.155385E-01
       N       E                     dE             d eps       ncg     rms          rms(c)
DAV:   1    -0.246284129561E+03   -0.48588E-02   -0.25570E-01 16508   0.968E-01    0.609E-02
RMM:   2    -0.246284500205E+03   -0.37064E-03   -0.40712E-03 16233   0.154E-01    0.524E-02
RMM:   3    -0.246284514951E+03   -0.14746E-04   -0.49011E-04 21437   0.532E-02    0.518E-02
RMM:   4    -0.246284498165E+03    0.16787E-04   -0.13381E-04 16977   0.199E-02    0.332E-02
RMM:   5    -0.246284484719E+03    0.13445E-04   -0.29927E-05 16559   0.102E-02    0.215E-02
RMM:   6    -0.246284486373E+03   -0.16534E-05   -0.21193E-05 16291   0.975E-03    0.114E-02
RMM:   7    -0.246284488929E+03   -0.25559E-05   -0.11234E-05 16003   0.702E-03    0.595E-03
RMM:   8    -0.246284489227E+03   -0.29852E-06   -0.11467E-06  9070   0.289E-03
   4 F= -.24628449E+03 E0= -.24627752E+03  d E =-.521755E-02
       N       E                     dE             d eps       ncg     rms          rms(c)
DAV:   1    -0.246288142581E+03   -0.36537E-02   -0.23008E+00 16220   0.290E+00    0.182E-01
RMM:   2    -0.246290996997E+03   -0.28544E-02   -0.30760E-02 16230   0.453E-01    0.276E-02
RMM:   3    -0.246291346100E+03   -0.34910E-03   -0.34844E-03 22662   0.133E-01    0.200E-02
RMM:   4    -0.246291361607E+03   -0.15507E-04   -0.12063E-04 19361   0.146E-02    0.139E-02
RMM:   5    -0.246291367626E+03   -0.60190E-05   -0.14806E-05 15862   0.771E-03    0.855E-03
RMM:   6    -0.246291373185E+03   -0.55588E-05   -0.10889E-05 16055   0.668E-03    0.220E-03
RMM:   7    -0.246291375693E+03   -0.25084E-05   -0.24025E-06  9473   0.367E-03    0.141E-03
RMM:   8    -0.246291376430E+03   -0.73633E-06   -0.74860E-07  9092   0.298E-03
   5 F= -.24629138E+03 E0= -.24628433E+03  d E =-.121048E-01
       N       E                     dE             d eps       ncg     rms          rms(c)
DAV:   1    -0.246295437009E+03   -0.40613E-02   -0.56999E-01 16268   0.145E+00    0.920E-02
RMM:   2    -0.246296155734E+03   -0.71872E-03   -0.69146E-03 16254   0.218E-01    0.617E-02
RMM:   3    -0.246296200812E+03   -0.45079E-04   -0.86949E-04 22873   0.639E-02    0.530E-02
RMM:   4    -0.246296180547E+03    0.20266E-04   -0.22916E-04 16268   0.312E-02    0.303E-02
RMM:   5    -0.246296178680E+03    0.18667E-05   -0.88936E-05 21747   0.166E-02    0.288E-02
RMM:   6    -0.246296171010E+03    0.76702E-05   -0.21699E-05 16197   0.118E-02    0.187E-02
RMM:   7    -0.246296165172E+03    0.58372E-05   -0.32788E-05 16646   0.114E-02    0.709E-03
RMM:   8    -0.246296164816E+03    0.35625E-06   -0.29260E-06  9490   0.529E-03
   6 F= -.24629616E+03 E0= -.24628909E+03  d E =-.478839E-02
       N       E                     dE             d eps       ncg     rms          rms(c)
DAV:   1    -0.246295880987E+03    0.28419E-03   -0.45784E+00 16184   0.411E+00    0.261E-01
RMM:   2    -0.246301125863E+03   -0.52449E-02   -0.54429E-02 16253   0.637E-01    0.457E-02
RMM:   3    -0.246301815361E+03   -0.68950E-03   -0.68780E-03 22883   0.174E-01    0.203E-02
RMM:   4    -0.246301834544E+03   -0.19183E-04   -0.17897E-04 20374   0.177E-02    0.122E-02
RMM:   5    -0.246301839468E+03   -0.49241E-05   -0.18689E-05 14499   0.708E-03    0.722E-03
RMM:   6    -0.246301842798E+03   -0.33301E-05   -0.83734E-06 14395   0.525E-03    0.313E-03
RMM:   7    -0.246301843739E+03   -0.94120E-06   -0.16258E-06  9313   0.316E-03
   7 F= -.24630184E+03 E0= -.24629472E+03  d E =-.104673E-01
       N       E                     dE             d eps       ncg     rms          rms(c)
DAV:   1    -0.246306141211E+03   -0.42984E-02   -0.93421E-01 16196   0.189E+00    0.126E-01
RMM:   2    -0.246307319080E+03   -0.11779E-02   -0.12098E-02 16224   0.284E-01    0.784E-02
RMM:   3    -0.246307384088E+03   -0.65008E-04   -0.13003E-03 22602   0.789E-02    0.636E-02
RMM:   4    -0.246307409079E+03   -0.24991E-04   -0.63855E-04 16264   0.510E-02    0.566E-02
RMM:   5    -0.246307368836E+03    0.40244E-04   -0.99736E-05 16546   0.192E-02    0.451E-02
RMM:   6    -0.246307340399E+03    0.28436E-04   -0.76996E-05 16225   0.188E-02    0.240E-02
RMM:   7    -0.246307339658E+03    0.74122E-06   -0.85894E-06 15166   0.633E-03
   8 F= -.24630734E+03 E0= -.24630025E+03  d E =-.549592E-02
       N       E                     dE             d eps       ncg     rms          rms(c)
DAV:   1    -0.246308350486E+03   -0.10101E-02   -0.18168E+00 16184   0.263E+00    0.178E-01
RMM:   2    -0.246310457901E+03   -0.21074E-02   -0.21434E-02 16225   0.386E-01    0.549E-02
RMM:   3    -0.246310693726E+03   -0.23583E-03   -0.23736E-03 22616   0.107E-01    0.288E-02
RMM:   4    -0.246310699474E+03   -0.57476E-05   -0.98751E-05 19427   0.130E-02    0.217E-02
RMM:   5    -0.246310692924E+03    0.65499E-05   -0.24199E-05 16348   0.101E-02    0.110E-02
RMM:   6    -0.246310691813E+03    0.11105E-05   -0.23939E-05 16661   0.101E-02    0.297E-03
RMM:   7    -0.246310694104E+03   -0.22910E-05   -0.71099E-06 14503   0.642E-03    0.483E-03
RMM:   8    -0.246310694644E+03   -0.54010E-06   -0.99553E-07  9088   0.252E-03
   9 F= -.24631069E+03 E0= -.24630366E+03  d E =-.885091E-02
       N       E                     dE             d eps       ncg     rms          rms(c)
DAV:   1    -0.246315992239E+03   -0.52981E-02   -0.11305E+00 16184   0.206E+00    0.145E-01
RMM:   2    -0.246317544714E+03   -0.15525E-02   -0.14654E-02 16222   0.314E-01    0.108E-01
RMM:   3    -0.246317680806E+03   -0.13609E-03   -0.16898E-03 21787   0.957E-02    0.106E-01
RMM:   4    -0.246317428016E+03    0.25279E-03   -0.56059E-04 16626   0.422E-02    0.553E-02
RMM:   5    -0.246317407307E+03    0.20709E-04   -0.14986E-04 20151   0.254E-02    0.407E-02
RMM:   6    -0.246317405011E+03    0.22969E-05   -0.25927E-05 16729   0.103E-02    0.330E-02
RMM:   7    -0.246317387982E+03    0.17029E-04   -0.26142E-05 16386   0.100E-02    0.215E-02
RMM:   8    -0.246317384035E+03    0.39467E-05   -0.71548E-06 15437   0.659E-03    0.168E-02
RMM:   9    -0.246317378927E+03    0.51080E-05   -0.15613E-05 16125   0.752E-03    0.773E-03
RMM:  10    -0.246317377831E+03    0.10963E-05   -0.74748E-06 15586   0.706E-03    0.288E-03
RMM:  11    -0.246317377689E+03    0.14169E-06   -0.21572E-06  9046   0.314E-03
  10 F= -.24631738E+03 E0= -.24631042E+03  d E =-.668304E-02
       N       E                     dE             d eps       ncg     rms          rms(c)
DAV:   1    -0.246317853443E+03   -0.47561E-03   -0.28996E+00 16184   0.330E+00    0.234E-01
RMM:   2    -0.246321013877E+03   -0.31604E-02   -0.32785E-02 16222   0.495E-01    0.394E-02
RMM:   3    -0.246321423924E+03   -0.41005E-03   -0.38713E-03 22701   0.136E-01    0.118E-02
RMM:   4    -0.246321439242E+03   -0.15318E-04   -0.12256E-04 19099   0.145E-02    0.846E-03
RMM:   5    -0.246321439833E+03   -0.59116E-06   -0.16065E-05 16575   0.830E-03    0.466E-03
RMM:   6    -0.246321441161E+03   -0.13273E-05   -0.36619E-06  9790   0.453E-03    0.577E-03
RMM:   7    -0.246321441270E+03   -0.10993E-06   -0.88452E-07  9091   0.339E-03
  11 F= -.24632144E+03 E0= -.24631461E+03  d E =-.107466E-01
       N       E                     dE             d eps       ncg     rms          rms(c)
DAV:   1    -0.246325005573E+03   -0.35644E-02   -0.98013E-01 16184   0.192E+00    0.147E-01
RMM:   2    -0.246326044592E+03   -0.10390E-02   -0.11826E-02 16219   0.279E-01    0.645E-02
RMM:   3    -0.246326172033E+03   -0.12744E-03   -0.13535E-03 22483   0.822E-02    0.576E-02
RMM:   4    -0.246326173654E+03   -0.16209E-05   -0.42367E-04 16321   0.424E-02    0.388E-02
RMM:   5    -0.246326181666E+03   -0.80117E-05   -0.10396E-04 17467   0.188E-02    0.323E-02
RMM:   6    -0.246326163387E+03    0.18279E-04   -0.18356E-05 16275   0.986E-03    0.252E-02
RMM:   7    -0.246326146609E+03    0.16778E-04   -0.32753E-05 16217   0.111E-02    0.124E-02
RMM:   8    -0.246326146202E+03    0.40668E-06   -0.13941E-05 16122   0.934E-03    0.872E-03
RMM:   9    -0.246326145311E+03    0.89073E-06   -0.21687E-06  9521   0.309E-03
  12 F= -.24632615E+03 E0= -.24631937E+03  d E =-.470404E-02
       N       E                     dE             d eps       ncg     rms          rms(c)
DAV:   1    -0.246324741217E+03    0.14050E-02   -0.37294E+00 16184   0.375E+00    0.287E-01
RMM:   2    -0.246328572723E+03   -0.38315E-02   -0.43717E-02 16222   0.554E-01    0.381E-02
RMM:   3    -0.246329068865E+03   -0.49614E-03   -0.47306E-03 22541   0.151E-01    0.266E-02
RMM:   4    -0.246329094677E+03   -0.25811E-04   -0.18963E-04 19805   0.185E-02    0.222E-02
RMM:   5    -0.246329101356E+03   -0.66791E-05   -0.19727E-05 16357   0.856E-03    0.157E-02
RMM:   6    -0.246329109648E+03   -0.82922E-05   -0.12306E-05 16065   0.651E-03    0.107E-02
RMM:   7    -0.246329111222E+03   -0.15742E-05   -0.18417E-06  9359   0.333E-03    0.907E-03
RMM:   8    -0.246329112543E+03   -0.13208E-05   -0.14525E-06  9138   0.271E-03    0.736E-03
RMM:   9    -0.246329113031E+03   -0.48782E-06   -0.15456E-06  9104   0.324E-03
  13 F= -.24632911E+03 E0= -.24632247E+03  d E =-.767176E-02
       N       E                     dE             d eps       ncg     rms          rms(c)
DAV:   1    -0.246332537889E+03   -0.34253E-02   -0.97574E-01 16184   0.193E+00    0.157E-01
RMM:   2    -0.246333568985E+03   -0.10311E-02   -0.11705E-02 16229   0.272E-01    0.592E-02
RMM:   3    -0.246333653403E+03   -0.84418E-04   -0.11669E-03 22336   0.760E-02    0.466E-02
RMM:   4    -0.246333560163E+03    0.93240E-04   -0.37206E-04 16240   0.356E-02    0.323E-02
RMM:   5    -0.246333596335E+03   -0.36172E-04   -0.12311E-04 20637   0.224E-02    0.411E-02
RMM:   6    -0.246333602622E+03   -0.62864E-05   -0.22501E-05 16207   0.966E-03    0.313E-02
RMM:   7    -0.246333613800E+03   -0.11178E-04   -0.29110E-05 16225   0.101E-02    0.207E-02
RMM:   8    -0.246333622971E+03   -0.91709E-05   -0.12434E-05 16039   0.704E-03    0.158E-02
RMM:   9    -0.246333628189E+03   -0.52183E-05   -0.11816E-05 16010   0.643E-03    0.956E-03
RMM:  10    -0.246333631479E+03   -0.32898E-05   -0.66759E-06 14219   0.547E-03    0.563E-03
RMM:  11    -0.246333632378E+03   -0.89885E-06   -0.50671E-06 12885   0.438E-03
  14 F= -.24633363E+03 E0= -.24632702E+03  d E =-.451935E-02
       N       E                     dE             d eps       ncg     rms          rms(c)
DAV:   1    -0.246332020323E+03    0.16112E-02   -0.50735E+00 16184   0.440E+00    0.359E-01
RMM:   2    -0.246337158108E+03   -0.51378E-02   -0.60225E-02 16230   0.625E-01    0.596E-02
RMM:   3    -0.246337781633E+03   -0.62353E-03   -0.59516E-03 22375   0.171E-01    0.195E-02
RMM:   4    -0.246337810830E+03   -0.29197E-04   -0.27282E-04 20775   0.217E-02    0.134E-02
RMM:   5    -0.246337810438E+03    0.39188E-06   -0.46457E-05 17076   0.138E-02    0.669E-03
RMM:   6    -0.246337812958E+03   -0.25193E-05   -0.14904E-05 16268   0.854E-03    0.873E-03
RMM:   7    -0.246337811982E+03    0.97542E-06   -0.20449E-06  9438   0.293E-03
  15 F= -.24633781E+03 E0= -.24633128E+03  d E =-.869895E-02
       N       E                     dE             d eps       ncg     rms          rms(c)
DAV:   1    -0.246342341228E+03   -0.45283E-02   -0.11171E+00 16184   0.206E+00    0.179E-01
RMM:   2    -0.246343553968E+03   -0.12127E-02   -0.14186E-02 16229   0.293E-01    0.718E-02
RMM:   3    -0.246343646706E+03   -0.92739E-04   -0.16233E-03 22203   0.915E-02    0.534E-02
RMM:   4    -0.246343630829E+03    0.15878E-04   -0.48183E-04 16592   0.425E-02    0.352E-02
RMM:   5    -0.246343608880E+03    0.21949E-04   -0.76957E-05 16687   0.176E-02    0.285E-02
RMM:   6    -0.246343610513E+03   -0.16330E-05   -0.51531E-05 16306   0.132E-02    0.165E-02
RMM:   7    -0.246343608047E+03    0.24654E-05   -0.25241E-05 17038   0.104E-02    0.914E-03
RMM:   8    -0.246343605942E+03    0.21053E-05   -0.81016E-06 15596   0.632E-03    0.436E-03
RMM:   9    -0.246343605025E+03    0.91708E-06   -0.33402E-06 10326   0.411E-03
  16 F= -.24634361E+03 E0= -.24633703E+03  d E =-.579304E-02
       N       E                     dE             d eps       ncg     rms          rms(c)
DAV:   1    -0.246344247907E+03   -0.64196E-03   -0.11391E+00 16184   0.208E+00    0.181E-01
RMM:   2    -0.246345379853E+03   -0.11319E-02   -0.14151E-02 16233   0.297E-01    0.277E-02
RMM:   3    -0.246345532813E+03   -0.15296E-03   -0.13894E-03 22286   0.855E-02    0.650E-03
RMM:   4    -0.246345543885E+03   -0.11072E-04   -0.81943E-05 18087   0.118E-02    0.420E-03
RMM:   5    -0.246345544381E+03   -0.49656E-06   -0.56618E-06 10094   0.548E-03
  17 F= -.24634554E+03 E0= -.24633893E+03  d E =-.773240E-02
       N       E                     dE             d eps       ncg     rms          rms(c)
DAV:   1    -0.246349443128E+03   -0.38992E-02   -0.17246E+00 16184   0.256E+00    0.218E-01
RMM:   2    -0.246351174985E+03   -0.17319E-02   -0.21528E-02 16231   0.364E-01    0.726E-02
RMM:   3    -0.246351345487E+03   -0.17050E-03   -0.21723E-03 22039   0.107E-01    0.524E-02
RMM:   4    -0.246351203666E+03    0.14182E-03   -0.58616E-04 16261   0.453E-02    0.397E-02
RMM:   5    -0.246351281666E+03   -0.78000E-04   -0.13642E-04 16316   0.252E-02    0.151E-02
RMM:   6    -0.246351295826E+03   -0.14160E-04   -0.34746E-05 17228   0.106E-02    0.667E-03
RMM:   7    -0.246351307245E+03   -0.11419E-04   -0.12914E-05 16069   0.714E-03    0.449E-03
RMM:   8    -0.246351310922E+03   -0.36770E-05   -0.24430E-06  9955   0.341E-03    0.259E-03
RMM:   9    -0.246351312789E+03   -0.18673E-05   -0.10397E-06  9101   0.259E-03    0.151E-03
RMM:  10    -0.246351314661E+03   -0.18720E-05   -0.67863E-07  9031   0.227E-03    0.163E-03
RMM:  11    -0.246351316112E+03   -0.14503E-05   -0.49592E-07  9017   0.171E-03    0.127E-03
RMM:  12    -0.246351316939E+03   -0.82784E-06   -0.47151E-07  9011   0.142E-03
  18 F= -.24635132E+03 E0= -.24634461E+03  d E =-.577256E-02
       N       E                     dE             d eps       ncg     rms          rms(c)
DAV:   1    -0.246351542372E+03   -0.22626E-03   -0.77321E-01 16184   0.172E+00    0.146E-01
RMM:   2    -0.246352269139E+03   -0.72677E-03   -0.91661E-03 16235   0.239E-01    0.199E-02
RMM:   3    -0.246352368523E+03   -0.99384E-04   -0.91664E-04 22213   0.697E-02    0.401E-03
RMM:   4    -0.246352375318E+03   -0.67953E-05   -0.51108E-05 15535   0.886E-03    0.224E-03
RMM:   5    -0.246352376785E+03   -0.14666E-05   -0.33654E-06  9911   0.415E-03    0.177E-03
RMM:   6    -0.246352377452E+03   -0.66768E-06   -0.93337E-07  9229   0.224E-03
  19 F= -.24635238E+03 E0= -.24634561E+03  d E =-.683307E-02
       N       E                     dE             d eps       ncg     rms          rms(c)
DAV:   1    -0.246354714782E+03   -0.23380E-02   -0.97409E-01 16184   0.195E+00    0.166E-01
RMM:   2    -0.246355658059E+03   -0.94328E-03   -0.12307E-02 16230   0.259E-01    0.743E-02
RMM:   3    -0.246355719217E+03   -0.61158E-04   -0.12484E-03 21228   0.821E-02    0.368E-02
RMM:   4    -0.246355790535E+03   -0.71318E-04   -0.41271E-04 16281   0.362E-02    0.398E-02
RMM:   5    -0.246355772782E+03    0.17753E-04   -0.15775E-04 16263   0.249E-02    0.161E-02
RMM:   6    -0.246355769605E+03    0.31768E-05   -0.26432E-05 16292   0.130E-02    0.108E-02
RMM:   7    -0.246355770372E+03   -0.76698E-06   -0.96291E-06 15561   0.557E-03
  20 F= -.24635577E+03 E0= -.24634893E+03  d E =-.339292E-02
