       N       E                     dE             d eps       ncg     rms          rms(c)
DAV:   1     0.350830081553E+04    0.35083E+04   -0.14415E+05 16320   0.117E+03
DAV:   2     0.184412575745E+03   -0.33239E+04   -0.30692E+04 16912   0.445E+02
DAV:   3    -0.251420425162E+03   -0.43583E+03   -0.40902E+03 23216   0.129E+02
DAV:   4    -0.281565971211E+03   -0.30146E+02   -0.27703E+02 23600   0.356E+01
DAV:   5    -0.282466826493E+03   -0.90086E+00   -0.88624E+00 22848   0.516E+00    0.277E+01
RMM:   6    -0.275230313773E+03    0.72365E+01   -0.13419E+01 18152   0.691E+00    0.242E+01
RMM:   7    -0.291719410378E+03   -0.16489E+02   -0.17631E+01 18424   0.703E+00    0.317E+01
RMM:   8    -0.273688345363E+03    0.18031E+02   -0.13449E+01 17975   0.659E+00    0.237E+01
RMM:   9    -0.259630718197E+03    0.14058E+02   -0.19235E+01 16532   0.111E+01    0.135E+01
RMM:  10    -0.258039632423E+03    0.15911E+01   -0.37042E+00 20163   0.344E+00    0.861E+00
RMM:  11    -0.257338681382E+03    0.70095E+00   -0.10835E+00 17128   0.223E+00    0.410E+00
RMM:  12    -0.257295600487E+03    0.43081E-01   -0.85603E-01 17049   0.204E+00    0.274E+00
RMM:  13    -0.257297782992E+03   -0.21825E-02   -0.28402E-01 19539   0.103E+00    0.210E+00
RMM:  14    -0.257279208255E+03    0.18575E-01   -0.85794E-02 16680   0.578E-01    0.129E+00
RMM:  15    -0.257268806910E+03    0.10401E-01   -0.69127E-02 16418   0.572E-01    0.816E-01
RMM:  16    -0.257266971945E+03    0.18350E-02   -0.26073E-02 17621   0.349E-01    0.571E-01
RMM:  17    -0.257270379243E+03   -0.34073E-02   -0.12383E-02 17015   0.217E-01    0.399E-01
RMM:  18    -0.257271611646E+03   -0.12324E-02   -0.76127E-03 16739   0.161E-01    0.317E-01
RMM:  19    -0.257269859005E+03    0.17526E-02   -0.37028E-03 16391   0.138E-01    0.194E-01
RMM:  20    -0.257269065270E+03    0.79374E-03   -0.22816E-03 16411   0.104E-01    0.128E-01
RMM:  21    -0.257268636710E+03    0.42856E-03   -0.19931E-03 16516   0.842E-02    0.899E-02
RMM:  22    -0.257268260196E+03    0.37651E-03   -0.90821E-04 16439   0.620E-02    0.567E-02
RMM:  23    -0.257267979337E+03    0.28086E-03   -0.39270E-04 17183   0.371E-02    0.461E-02
RMM:  24    -0.257267674216E+03    0.30512E-03   -0.35594E-04 16373   0.382E-02    0.256E-02
RMM:  25    -0.257267583839E+03    0.90376E-04   -0.32666E-04 16381   0.364E-02    0.159E-02
RMM:  26    -0.257267621216E+03   -0.37377E-04   -0.14567E-04 16636   0.216E-02    0.117E-02
RMM:  27    -0.257267666878E+03   -0.45662E-04   -0.77346E-05 16137   0.161E-02    0.949E-03
RMM:  28    -0.257267703198E+03   -0.36320E-04   -0.45967E-05 15921   0.120E-02    0.863E-03
RMM:  29    -0.257267725099E+03   -0.21900E-04   -0.25102E-05 15189   0.854E-03    0.493E-03
RMM:  30    -0.257267739390E+03   -0.14291E-04   -0.22495E-05 14976   0.853E-03    0.320E-03
RMM:  31    -0.257267739809E+03   -0.41933E-06   -0.42761E-06 11051   0.318E-03
   1 F= -.25726774E+03 E0= -.25725783E+03  d E =-.257268E+03
       N       E                     dE             d eps       ncg     rms          rms(c)
DAV:   1    -0.257268047951E+03   -0.30856E-03   -0.55388E-03 16944   0.133E-01    0.187E-02
RMM:   2    -0.257268057785E+03   -0.98341E-05   -0.11765E-04 15817   0.178E-02    0.169E-02
RMM:   3    -0.257268054661E+03    0.31234E-05   -0.92071E-06 11299   0.565E-03    0.853E-03
RMM:   4    -0.257268048259E+03    0.64027E-05   -0.11057E-05 12923   0.598E-03    0.256E-03
RMM:   5    -0.257268047695E+03    0.56325E-06   -0.81157E-07  8952   0.240E-03
   2 F= -.25726805E+03 E0= -.25725814E+03  d E =-.307886E-03
       N       E                     dE             d eps       ncg     rms          rms(c)
DAV:   1    -0.257268162763E+03   -0.11450E-03   -0.70061E-03 17072   0.149E-01    0.214E-02
RMM:   2    -0.257268165339E+03   -0.25759E-05   -0.14615E-04 16017   0.196E-02    0.201E-03
RMM:   3    -0.257268165910E+03   -0.57145E-06   -0.57287E-06 10543   0.537E-03
   3 F= -.25726817E+03 E0= -.25725825E+03  d E =-.426101E-03
       N       E                     dE             d eps       ncg     rms          rms(c)
DAV:   1    -0.257268326355E+03   -0.16102E-03   -0.16118E-03 17264   0.750E-02    0.973E-03
RMM:   2    -0.257268329212E+03   -0.28568E-05   -0.27926E-05 12985   0.900E-03    0.812E-03
RMM:   3    -0.257268328668E+03    0.54433E-06   -0.25180E-06  9828   0.349E-03
   4 F= -.25726833E+03 E0= -.25725842E+03  d E =-.162757E-03
       N       E                     dE             d eps       ncg     rms          rms(c)
DAV:   1    -0.257268629656E+03   -0.30044E-03   -0.14350E-02 17104   0.224E-01    0.290E-02
RMM:   2    -0.257268639863E+03   -0.10207E-04   -0.22021E-04 16107   0.242E-02    0.663E-03
RMM:   3    -0.257268639043E+03    0.81997E-06   -0.16336E-05 13579   0.871E-03    0.359E-03
RMM:   4    -0.257268640250E+03   -0.12065E-05   -0.32507E-06 10217   0.363E-03    0.269E-03
RMM:   5    -0.257268640777E+03   -0.52660E-06   -0.78533E-07  8974   0.255E-03
   5 F= -.25726864E+03 E0= -.25725873E+03  d E =-.474866E-03
