 vasp.5.4.4.18Apr17-6-g9f103f2a35 (build Jul  5 2023 12:04:10) complex           
 executed on NVIDIA22.5_CrayMPICH date 2024.05.04  11:15:01
 running on  256 total cores
 distrk:  each k-point on  256 cores,    1 groups
 distr:  one band on NCORES_PER_BAND=  16 cores,   16 groups


--------------------------------------------------------------------------------------------------------


 INCAR:
 POTCAR:   PAW_PBE Pt 05Jan2001                   
 POTCAR:   PAW_PBE C 08Apr2002                    
 POTCAR:   PAW_PBE H 15Jun2001                    
 POTCAR:   PAW_PBE C 08Apr2002                    
 POTCAR:   PAW_PBE H 15Jun2001                    

 ----------------------------------------------------------------------------- 
|                                                                             |
|  ADVICE TO THIS USER RUNNING 'VASP/VAMP'   (HEAR YOUR MASTER'S VOICE ...):  |
|                                                                             |
|      You have switched on vdW-DFT.                                          |
|      This routine was written and supplied by Jiri Klimes.                  |
|      We recommed that you carefully read and cite the following             |
|      publication                                                            |
|      J. Klimes, D.R. Bowler, A. Michelides                                  |
|        J. Phys.: Cond Matt. 22 022201 (2010)                                |
|      J. Klimes, D.R. Bowler, A. Michelides                                  |
|        Phys. Rev. B. 83, 195131 (2011)                                      |
|      and references therein.                                                |
|                                                                             |
 ----------------------------------------------------------------------------- 

 POTCAR:   PAW_PBE Pt 05Jan2001                   
   VRHFIN =Pt: s1d9                                                             
   LEXCH  = PE                                                                  
   EATOM  =   729.1171 eV,   53.5886 Ry                                         
                                                                                
   TITEL  = PAW_PBE Pt 05Jan2001                                                
   LULTRA =        F    use ultrasoft PP ?                                      
   IUNSCR =        1    unscreen: 0-lin 1-nonlin 2-no                           
   RPACOR =    2.330    partial core radius                                     
   POMASS =  195.080; ZVAL   =   10.000    mass and valenz                      
   RCORE  =    2.500    outmost cutoff radius                                   
   RWIGS  =    2.750; RWIGS  =    1.455    wigner-seitz radius (au A)           
   ENMAX  =  230.283; ENMIN  =  172.712 eV                                      
   RCLOC  =    1.896    cutoff for local pot                                    
   LCOR   =        T    correct aug charges                                     
   LPAW   =        T    paw PP                                                  
   EAUG   =  358.966                                                            
   DEXC   =    -.039                                                            
   RMAX   =    3.038    core radius for proj-oper                               
   RAUG   =    1.300    factor for augmentation sphere                          
   RDEP   =    2.590    radius for radial grids                                 
   QCUT   =   -4.114; QGAM   =    8.228    optimization parameters              
                                                                                
   Description                                                                  
     l     E      TYP  RCUT    TYP  RCUT                                        
     2   .000     23  2.500                                                     
     2   .000     23  2.500                                                     
     0   .000     23  2.500                                                     
     0   .000     23  2.500                                                     
     1  -.200     23  2.500                                                     
     1  1.500     23  2.500                                                     
     3   .000      7   .000                                                     
  local pseudopotential read in
  partial core-charges read in
  atomic valenz-charges read in
  non local Contribution for L=            2  read in
    real space projection operators read in
  non local Contribution for L=            2  read in
    real space projection operators read in
  non local Contribution for L=            0  read in
    real space projection operators read in
  non local Contribution for L=            0  read in
    real space projection operators read in
  non local Contribution for L=            1  read in
    real space projection operators read in
  non local Contribution for L=            1  read in
    real space projection operators read in
    PAW grid and wavefunctions read in
 
   number of l-projection  operators is LMAX  =            6
   number of lm-projection operators is LMMAX =           18
 
 POTCAR:   PAW_PBE C 08Apr2002                    
   VRHFIN =C: s2p2                                                              
   LEXCH  = PE                                                                  
   EATOM  =   147.1560 eV,   10.8157 Ry                                         
                                                                                
   TITEL  = PAW_PBE C 08Apr2002                                                 
   LULTRA =        F    use ultrasoft PP ?                                      
   IUNSCR =        0    unscreen: 0-lin 1-nonlin 2-no                           
   RPACOR =     .000    partial core radius                                     
   POMASS =   12.011; ZVAL   =    4.000    mass and valenz                      
   RCORE  =    1.500    outmost cutoff radius                                   
   RWIGS  =    1.630; RWIGS  =     .863    wigner-seitz radius (au A)           
   ENMAX  =  400.000; ENMIN  =  300.000 eV                                      
   ICORE  =        2    local potential                                         
   LCOR   =        T    correct aug charges                                     
   LPAW   =        T    paw PP                                                  
   EAUG   =  644.873                                                            
   DEXC   =     .000                                                            
   RMAX   =    2.266    core radius for proj-oper                               
   RAUG   =    1.300    factor for augmentation sphere                          
   RDEP   =    1.501    radius for radial grids                                 
   RDEPT  =    1.300    core radius for aug-charge                              
   QCUT   =   -5.516; QGAM   =   11.032    optimization parameters              
                                                                                
   Description                                                                  
     l     E      TYP  RCUT    TYP  RCUT                                        
     0   .000     23  1.200                                                     
     0   .000     23  1.200                                                     
     1   .000     23  1.500                                                     
     1  2.500     23  1.500                                                     
     2   .000      7  1.500                                                     
  local pseudopotential read in
  atomic valenz-charges read in
  non local Contribution for L=            0  read in
    real space projection operators read in
  non local Contribution for L=            0  read in
    real space projection operators read in
  non local Contribution for L=            1  read in
    real space projection operators read in
  non local Contribution for L=            1  read in
    real space projection operators read in
    PAW grid and wavefunctions read in
 
   number of l-projection  operators is LMAX  =            4
   number of lm-projection operators is LMMAX =            8
 
 POTCAR:   PAW_PBE H 15Jun2001                    
   VRHFIN =H: ultrasoft test                                                    
   LEXCH  = PE                                                                  
   EATOM  =    12.4884 eV,     .9179 Ry                                         
                                                                                
   TITEL  = PAW_PBE H 15Jun2001                                                 
   LULTRA =        F    use ultrasoft PP ?                                      
   IUNSCR =        0    unscreen: 0-lin 1-nonlin 2-no                           
   RPACOR =     .000    partial core radius                                     
   POMASS =    1.000; ZVAL   =    1.000    mass and valenz                      
   RCORE  =    1.100    outmost cutoff radius                                   
   RWIGS  =     .700; RWIGS  =     .370    wigner-seitz radius (au A)           
   ENMAX  =  250.000; ENMIN  =  200.000 eV                                      
   RCLOC  =     .701    cutoff for local pot                                    
   LCOR   =        T    correct aug charges                                     
   LPAW   =        T    paw PP                                                  
   EAUG   =  400.000                                                            
   RMAX   =    2.174    core radius for proj-oper                               
   RAUG   =    1.200    factor for augmentation sphere                          
   RDEP   =    1.112    radius for radial grids                                 
   QCUT   =   -5.749; QGAM   =   11.498    optimization parameters              
                                                                                
   Description                                                                  
     l     E      TYP  RCUT    TYP  RCUT                                        
     0   .000     23  1.100                                                     
     0   .500     23  1.100                                                     
     1  -.300     23  1.100                                                     
  local pseudopotential read in
  atomic valenz-charges read in
  non local Contribution for L=            0  read in
    real space projection operators read in
  non local Contribution for L=            0  read in
    real space projection operators read in
  non local Contribution for L=            1  read in
    real space projection operators read in
    PAW grid and wavefunctions read in
 
   number of l-projection  operators is LMAX  =            3
   number of lm-projection operators is LMMAX =            5
 
 POTCAR:   PAW_PBE C 08Apr2002                    
   VRHFIN =C: s2p2                                                              
   LEXCH  = PE                                                                  
   EATOM  =   147.1560 eV,   10.8157 Ry                                         
                                                                                
   TITEL  = PAW_PBE C 08Apr2002                                                 
   LULTRA =        F    use ultrasoft PP ?                                      
   IUNSCR =        0    unscreen: 0-lin 1-nonlin 2-no                           
   RPACOR =     .000    partial core radius                                     
   POMASS =   12.011; ZVAL   =    4.000    mass and valenz                      
   RCORE  =    1.500    outmost cutoff radius                                   
   RWIGS  =    1.630; RWIGS  =     .863    wigner-seitz radius (au A)           
   ENMAX  =  400.000; ENMIN  =  300.000 eV                                      
   ICORE  =        2    local potential                                         
   LCOR   =        T    correct aug charges                                     
   LPAW   =        T    paw PP                                                  
   EAUG   =  644.873                                                            
   DEXC   =     .000                                                            
   RMAX   =    2.266    core radius for proj-oper                               
   RAUG   =    1.300    factor for augmentation sphere                          
   RDEP   =    1.501    radius for radial grids                                 
   RDEPT  =    1.300    core radius for aug-charge                              
   QCUT   =   -5.516; QGAM   =   11.032    optimization parameters              
                                                                                
   Description                                                                  
     l     E      TYP  RCUT    TYP  RCUT                                        
     0   .000     23  1.200                                                     
     0   .000     23  1.200                                                     
     1   .000     23  1.500                                                     
     1  2.500     23  1.500                                                     
     2   .000      7  1.500                                                     
  local pseudopotential read in
  atomic valenz-charges read in
  non local Contribution for L=            0  read in
    real space projection operators read in
  non local Contribution for L=            0  read in
    real space projection operators read in
  non local Contribution for L=            1  read in
    real space projection operators read in
  non local Contribution for L=            1  read in
    real space projection operators read in
    PAW grid and wavefunctions read in
 
   number of l-projection  operators is LMAX  =            4
   number of lm-projection operators is LMMAX =            8
 
 POTCAR:   PAW_PBE H 15Jun2001                    
   VRHFIN =H: ultrasoft test                                                    
   LEXCH  = PE                                                                  
   EATOM  =    12.4884 eV,     .9179 Ry                                         
                                                                                
   TITEL  = PAW_PBE H 15Jun2001                                                 
   LULTRA =        F    use ultrasoft PP ?                                      
   IUNSCR =        0    unscreen: 0-lin 1-nonlin 2-no                           
   RPACOR =     .000    partial core radius                                     
   POMASS =    1.000; ZVAL   =    1.000    mass and valenz                      
   RCORE  =    1.100    outmost cutoff radius                                   
   RWIGS  =     .700; RWIGS  =     .370    wigner-seitz radius (au A)           
   ENMAX  =  250.000; ENMIN  =  200.000 eV                                      
   RCLOC  =     .701    cutoff for local pot                                    
   LCOR   =        T    correct aug charges                                     
   LPAW   =        T    paw PP                                                  
   EAUG   =  400.000                                                            
   RMAX   =    2.174    core radius for proj-oper                               
   RAUG   =    1.200    factor for augmentation sphere                          
   RDEP   =    1.112    radius for radial grids                                 
   QCUT   =   -5.749; QGAM   =   11.498    optimization parameters              
                                                                                
   Description                                                                  
     l     E      TYP  RCUT    TYP  RCUT                                        
     0   .000     23  1.100                                                     
     0   .500     23  1.100                                                     
     1  -.300     23  1.100                                                     
  local pseudopotential read in
  atomic valenz-charges read in
  non local Contribution for L=            0  read in
    real space projection operators read in
  non local Contribution for L=            0  read in
    real space projection operators read in
  non local Contribution for L=            1  read in
    real space projection operators read in
    PAW grid and wavefunctions read in
 
   number of l-projection  operators is LMAX  =            3
   number of lm-projection operators is LMMAX =            5
 
 Optimization of the real space projectors (new method)

 maximal supplied QI-value         = 15.12
 optimisation between [QCUT,QGAM] = [ 10.13, 20.26] = [ 28.73,114.92] Ry 
 Optimized for a Real-space Cutoff    1.66 Angstroem

   l    n(q)    QCUT    max X(q) W(low)/X(q) W(high)/X(q)  e(spline) 
   2      9    10.129     3.643    0.26E-04    0.47E-05    0.66E-07
   2      9    10.129    46.462    0.19E-03    0.14E-03    0.36E-06
   0     10    10.129    13.796    0.20E-04    0.13E-05    0.52E-08
   0     10    10.129    57.669    0.74E-04    0.43E-04    0.14E-06
   1     10    10.129     7.440    0.56E-05    0.78E-05    0.31E-07
   1     10    10.129    10.255    0.35E-04    0.26E-05    0.11E-06
 Optimization of the real space projectors (new method)

 maximal supplied QI-value         = 25.13
 optimisation between [QCUT,QGAM] = [ 10.05, 20.36] = [ 28.30,116.06] Ry 
 Optimized for a Real-space Cutoff    1.39 Angstroem

   l    n(q)    QCUT    max X(q) W(low)/X(q) W(high)/X(q)  e(spline) 
   0      8    10.053     5.582    0.33E-04    0.11E-04    0.76E-07
   0      8    10.053    69.432    0.23E-03    0.30E-03    0.26E-06
   1      8    10.053     2.780    0.71E-04    0.11E-03    0.15E-06
   1      8    10.053     4.549    0.18E-03    0.18E-03    0.28E-06
 Optimization of the real space projectors (new method)

 maximal supplied QI-value         = 34.20
 optimisation between [QCUT,QGAM] = [  9.92, 20.18] = [ 27.55,114.04] Ry 
 Optimized for a Real-space Cutoff    1.35 Angstroem

   l    n(q)    QCUT    max X(q) W(low)/X(q) W(high)/X(q)  e(spline) 
   0      8     9.919     4.436    0.29E-04    0.54E-04    0.68E-07
   0      8     9.919    16.131    0.15E-03    0.18E-03    0.35E-06
   1      8     9.919     4.654    0.20E-03    0.45E-03    0.40E-06
 Optimization of the real space projectors (new method)

 maximal supplied QI-value         = 25.13
 optimisation between [QCUT,QGAM] = [ 10.05, 20.36] = [ 28.30,116.06] Ry 
 Optimized for a Real-space Cutoff    1.39 Angstroem

   l    n(q)    QCUT    max X(q) W(low)/X(q) W(high)/X(q)  e(spline) 
   0      8    10.053     5.582    0.33E-04    0.11E-04    0.76E-07
   0      8    10.053    69.432    0.23E-03    0.30E-03    0.26E-06
   1      8    10.053     2.780    0.71E-04    0.11E-03    0.15E-06
   1      8    10.053     4.549    0.18E-03    0.18E-03    0.28E-06
 Optimization of the real space projectors (new method)

 maximal supplied QI-value         = 34.20
 optimisation between [QCUT,QGAM] = [  9.92, 20.18] = [ 27.55,114.04] Ry 
 Optimized for a Real-space Cutoff    1.35 Angstroem

   l    n(q)    QCUT    max X(q) W(low)/X(q) W(high)/X(q)  e(spline) 
   0      8     9.919     4.436    0.29E-04    0.54E-04    0.68E-07
   0      8     9.919    16.131    0.15E-03    0.18E-03    0.35E-06
   1      8     9.919     4.654    0.20E-03    0.45E-03    0.40E-06

 ----------------------------------------------------------------------------- 
|                                                                             |
|  ADVICE TO THIS USER RUNNING 'VASP/VAMP'   (HEAR YOUR MASTER'S VOICE ...):  |
|                                                                             |
|      You enforced a specific xc-type in the INCAR file,                     |
|      a different type was found on the POTCAR file                          |
|          I HOPE YOU KNOW, WHAT YOU ARE  DOING                               |
|                                                                             |
 ----------------------------------------------------------------------------- 

 PAW_PBE Pt 05Jan2001                   :
 energy of atom  1       EATOM= -729.1171
 kinetic energy error for atom=    0.0058 (will be added to EATOM!!)
 PAW_PBE C 08Apr2002                    :
 energy of atom  2       EATOM= -147.1560
 kinetic energy error for atom=    0.0312 (will be added to EATOM!!)
 PAW_PBE H 15Jun2001                    :
 energy of atom  3       EATOM=  -12.4884
 kinetic energy error for atom=    0.0103 (will be added to EATOM!!)
 PAW_PBE C 08Apr2002                    :
 energy of atom  4       EATOM= -147.1560
 kinetic energy error for atom=    0.0312 (will be added to EATOM!!)
 PAW_PBE H 15Jun2001                    :
 energy of atom  5       EATOM=  -12.4884
 kinetic energy error for atom=    0.0103 (will be added to EATOM!!)
 
 
 POSCAR: Pt  C  H                                
  positions in direct lattice
  velocities in cartesian coordinates
 exchange correlation table for  LEXCH =       41
   RHO(1)=    0.500       N(1)  =     2000
   RHO(2)=  100.500       N(2)  =     4000

 VTST: version 3.2, (02/03/18)

 CHAIN: initializing optimizer
 
 OPT: Using VASP Conjugate-Gradient optimizer
 CHAIN: Read ICHAIN             0
 
 POSCAR: Pt  C  H                                
  positions in direct lattice
  velocities in cartesian coordinates
 


--------------------------------------------------------------------------------------------------------


 ion  position               nearest neighbor table
   1  0.000  0.000  0.372-   3 2.82  10 2.82  12 2.82  16 2.82   2 2.82   6 2.82   7 2.82   4 2.82
                             8 2.82
   2  0.333  0.000  0.372-   9 2.82  11 2.82   8 2.82   5 2.82  17 2.82   3 2.82   1 2.82   4 2.82
                            10 2.82
   3  0.667  0.000  0.372-   1 2.82   7 2.82  12 2.82   6 2.82  18 2.82   2 2.82  11 2.82   9 2.82
                             5 2.82
   4  0.000  0.333  0.372-   7 2.82   5 2.82   9 2.82  13 2.82   6 2.82  15 2.82  10 2.82   2 2.82
                             1 2.82
   5  0.333  0.333  0.372-   7 2.82   4 2.82  13 2.82  14 2.82   8 2.82   2 2.82   6 2.82  11 2.82
                             3 2.82
   6  0.667  0.333  0.372-   9 2.82   8 2.82  15 2.82   3 2.82   4 2.82  14 2.82   5 2.82   1 2.82
                            12 2.82
   7  0.000  0.667  0.372-   4 2.82   5 2.82   3 2.82  18 2.82  16 2.82   9 2.82   1 2.82  13 2.82
                             8 2.82
   8  0.333  0.667  0.372-   9 2.82   6 2.82   5 2.82  17 2.82   2 2.82  14 2.82   1 2.82  16 2.82
                             7 2.82
   9  0.667  0.667  0.372-   8 2.82   6 2.82   4 2.82   2 2.82  17 2.82   7 2.82  15 2.82  18 2.82
                             3 2.82
  10  0.111  0.111  0.457-  25 2.77  19 2.80  15 2.82  12 2.82  13 2.82   1 2.82  16 2.82  11 2.82
                             4 2.82  17 2.82   2 2.82  21 2.89
  11  0.444  0.111  0.457-  26 2.78  13 2.82  14 2.82   2 2.82  17 2.82  12 2.82  10 2.82   5 2.82
                            18 2.82   3 2.82  19 2.82  20 2.87
  12  0.778  0.111  0.457-  27 2.78  15 2.82  10 2.82  14 2.82   3 2.82  16 2.82  18 2.82   1 2.82
                            11 2.82   6 2.82  21 2.85  20 2.86
  13  0.111  0.444  0.457-  19 2.77  22 2.81  11 2.82  14 2.82   5 2.82  10 2.82   4 2.82  16 2.82
                            18 2.82   7 2.82  15 2.82  24 2.83
  14  0.444  0.444  0.457-  20 2.81  13 2.82  11 2.82  12 2.82   5 2.82  16 2.82   6 2.82  15 2.82
                             8 2.82  17 2.82  22 2.82  23 2.84
  15  0.778  0.444  0.457-  24 2.81  21 2.82  12 2.82  10 2.82   6 2.82  17 2.82   4 2.82  14 2.82
                             9 2.82  13 2.82  18 2.82  23 2.86
  16  0.111  0.778  0.457-  22 2.77  25 2.81  18 2.82  13 2.82  12 2.82  14 2.82  10 2.82   7 2.82
                             1 2.82  17 2.82   8 2.82  27 2.83
  17  0.444  0.778  0.457-  26 2.81   8 2.82   9 2.82  15 2.82  11 2.82   2 2.82  16 2.82  18 2.82
                            10 2.82  14 2.82  25 2.82  23 2.83
  18  0.778  0.778  0.457-  24 2.78  27 2.82  16 2.82   7 2.82  12 2.82  13 2.82   3 2.82  17 2.82
                            11 2.82   9 2.82  15 2.82  26 2.83
  19  0.217  0.228  0.542-  13 2.77  10 2.80  25 2.81  26 2.81  11 2.82  24 2.82  22 2.82  35 2.82
                            21 2.84  20 2.84  29 2.84  28 2.87
  20  0.552  0.230  0.544-  21 2.78  23 2.78  36 2.78  14 2.81  22 2.82  27 2.82  29 2.82  26 2.84
                            19 2.84  12 2.86  11 2.87  30 3.06
  21  0.881  0.230  0.544-  23 2.78  20 2.78  34 2.78  28 2.81  27 2.82  24 2.82  15 2.82  25 2.83
                            19 2.84  12 2.85  10 2.89  30 3.07
  22  0.217  0.562  0.542-  16 2.77  13 2.81  29 2.81  20 2.82  24 2.82  23 2.82  19 2.82  27 2.82
                            14 2.82  25 2.82  31 2.84  33 2.87
  23  0.552  0.559  0.544-  21 2.78  20 2.78  31 2.82  24 2.82  32 2.82  22 2.82  17 2.83  26 2.84
                            14 2.84  25 2.84  15 2.86  30 3.01
  24  0.884  0.562  0.542-  18 2.78  15 2.81  28 2.81  21 2.82  23 2.82  22 2.82  26 2.82  19 2.82
                            27 2.82  13 2.83  33 2.85  32 2.86
  25  0.216  0.896  0.542-  10 2.77  31 2.78  16 2.81  19 2.81  27 2.81  26 2.82  17 2.82  22 2.82
                            21 2.83  23 2.84  35 2.86  34 2.89
  26  0.550  0.896  0.542-  11 2.78  32 2.81  17 2.81  19 2.81  27 2.82  24 2.82  25 2.82  18 2.83
                            20 2.84  23 2.84  36 2.85  35 2.88
  27  0.884  0.896  0.542-  12 2.78  33 2.81  25 2.81  21 2.82  18 2.82  20 2.82  26 2.82  22 2.82
                            24 2.82  16 2.83  34 2.86  36 2.86
  28  0.990  0.346  0.629-  29 2.80  35 2.81  21 2.81  34 2.81  24 2.81  33 2.82  32 2.83  30 2.84
                            19 2.87
  29  0.322  0.346  0.628-  35 2.80  28 2.80  22 2.81  36 2.82  20 2.82  33 2.82  19 2.84  30 2.84
                            31 2.85
  30  0.655  0.350  0.640-  40 2.18  32 2.83  31 2.84  28 2.84  34 2.84  29 2.84  36 2.85  23 3.01
                            20 3.06  21 3.07
  31  0.321  0.683  0.628-  25 2.78  35 2.80  34 2.81  23 2.82  33 2.82  32 2.82  22 2.84  30 2.84
                            29 2.85
  32  0.656  0.681  0.629-  26 2.81  36 2.81  33 2.81  23 2.82  35 2.82  31 2.82  30 2.83  28 2.83
                            24 2.86
  33  0.989  0.681  0.629-  27 2.81  32 2.81  36 2.82  31 2.82  28 2.82  34 2.82  29 2.82  24 2.85
                            22 2.87
  34  0.989  0.015  0.629-  21 2.78  31 2.81  28 2.81  36 2.82  35 2.82  33 2.82  30 2.84  27 2.86
                            25 2.89
  35  0.323  0.014  0.629-  31 2.80  29 2.80  28 2.81  36 2.82  32 2.82  34 2.82  19 2.82  25 2.86
                            26 2.88
  36  0.656  0.014  0.629-  20 2.78  32 2.81  33 2.82  29 2.82  34 2.82  35 2.82  30 2.85  26 2.85
                            27 2.86
  37  0.445  0.312  0.808-  52 1.10  51 1.11  38 1.53  42 1.53
  38  0.387  0.505  0.790-  44 1.10  43 1.10  37 1.53  39 1.55
  39  0.430  0.501  0.734-  45 1.11  50 1.11  40 1.54  38 1.55
  40  0.631  0.371  0.721-  53 1.53  39 1.54  41 1.54  30 2.18
  41  0.694  0.178  0.741-  47 1.10  46 1.11  40 1.54  42 1.55
  42  0.649  0.181  0.797-  49 1.10  48 1.10  37 1.53  41 1.55
  43  0.457  0.563  0.811-  38 1.10
  44  0.239  0.597  0.795-  38 1.10
  45  0.387  0.641  0.720-  39 1.11
  46  0.625  0.117  0.721-  41 1.11
  47  0.842  0.089  0.735-  41 1.10
  48  0.732  0.221  0.820-  42 1.10
  49  0.688  0.041  0.809-  42 1.10
  50  0.344  0.455  0.714-  39 1.11
  51  0.363  0.262  0.788-  37 1.11
  52  0.417  0.313  0.848-  37 1.10
  53  0.753  0.445  0.739-  55 1.10  56 1.11  54 1.11  40 1.53
  54  0.751  0.453  0.780-  53 1.11
  55  0.705  0.585  0.725-  53 1.10
  56  0.896  0.357  0.727-  53 1.11
 

IMPORTANT INFORMATION: All symmetrisations will be switched off!
NOSYMM: (Re-)initialisation of all symmetry stuff for point group C_1.

 
 
 KPOINTS: Automatic mesh                          

Automatic generation of k-mesh.
Space group operators:
 irot       det(A)        alpha          n_x          n_y          n_z        tau_x        tau_y        tau_z
    1     1.000000     0.000000     1.000000     0.000000     0.000000     0.000000     0.000000     0.000000
 
 Subroutine IBZKPT returns following result:
 ===========================================
 
 Found     34 irreducible k-points:
 
 Following reciprocal coordinates:
            Coordinates               Weight
  0.000000  0.000000  0.000000      1.000000
  0.125000  0.000000  0.000000      2.000000
  0.250000  0.000000  0.000000      2.000000
  0.375000  0.000000  0.000000      2.000000
  0.500000  0.000000  0.000000      1.000000
  0.000000  0.125000  0.000000      2.000000
  0.125000  0.125000  0.000000      2.000000
  0.250000  0.125000  0.000000      2.000000
  0.375000  0.125000  0.000000      2.000000
  0.500000  0.125000  0.000000      2.000000
 -0.375000  0.125000  0.000000      2.000000
 -0.250000  0.125000  0.000000      2.000000
 -0.125000  0.125000  0.000000      2.000000
  0.000000  0.250000  0.000000      2.000000
  0.125000  0.250000  0.000000      2.000000
  0.250000  0.250000  0.000000      2.000000
  0.375000  0.250000  0.000000      2.000000
  0.500000  0.250000  0.000000      2.000000
 -0.375000  0.250000  0.000000      2.000000
 -0.250000  0.250000  0.000000      2.000000
 -0.125000  0.250000  0.000000      2.000000
  0.000000  0.375000  0.000000      2.000000
  0.125000  0.375000  0.000000      2.000000
  0.250000  0.375000  0.000000      2.000000
  0.375000  0.375000  0.000000      2.000000
  0.500000  0.375000  0.000000      2.000000
 -0.375000  0.375000  0.000000      2.000000
 -0.250000  0.375000  0.000000      2.000000
 -0.125000  0.375000  0.000000      2.000000
  0.000000  0.500000  0.000000      1.000000
  0.125000  0.500000  0.000000      2.000000
  0.250000  0.500000  0.000000      2.000000
  0.375000  0.500000  0.000000      2.000000
  0.500000  0.500000  0.000000      1.000000
 
 Following cartesian coordinates:
            Coordinates               Weight
  0.000000  0.000000  0.000000      1.000000
  0.014783 -0.008535  0.000000      2.000000
  0.029566 -0.017070  0.000000      2.000000
  0.044349 -0.025605  0.000000      2.000000
  0.059133 -0.034140  0.000000      1.000000
  0.000000  0.017070  0.000000      2.000000
  0.014783  0.008535  0.000000      2.000000
  0.029566 -0.000000  0.000000      2.000000
  0.044349 -0.008535  0.000000      2.000000
  0.059133 -0.017070  0.000000      2.000000
 -0.044349  0.042675  0.000000      2.000000
 -0.029566  0.034140  0.000000      2.000000
 -0.014783  0.025605  0.000000      2.000000
  0.000000  0.034140  0.000000      2.000000
  0.014783  0.025605  0.000000      2.000000
  0.029566  0.017070  0.000000      2.000000
  0.044349  0.008535  0.000000      2.000000
  0.059133 -0.000000  0.000000      2.000000
 -0.044349  0.059745  0.000000      2.000000
 -0.029566  0.051210  0.000000      2.000000
 -0.014783  0.042675  0.000000      2.000000
  0.000000  0.051210  0.000000      2.000000
  0.014783  0.042675  0.000000      2.000000
  0.029566  0.034140  0.000000      2.000000
  0.044349  0.025605  0.000000      2.000000
  0.059133  0.017070  0.000000      2.000000
 -0.044349  0.076815  0.000000      2.000000
 -0.029566  0.068280  0.000000      2.000000
 -0.014783  0.059745  0.000000      2.000000
  0.000000  0.068280  0.000000      1.000000
  0.014783  0.059745  0.000000      2.000000
  0.029566  0.051210  0.000000      2.000000
  0.044349  0.042675  0.000000      2.000000
  0.059133  0.034140  0.000000      1.000000
 


--------------------------------------------------------------------------------------------------------




 Dimension of arrays:
   k-points           NKPTS =     34   k-points in BZ     NKDIM =     34   number of bands    NBANDS=    240
   number of dos      NEDOS =    301   number of ions     NIONS =     56
   non local maximal  LDIM  =      6   non local SUM 2l+1 LMDIM =     18
   total plane-waves  NPLWV = 564480
   max r-space proj   IRMAX =   6504   max aug-charges    IRDMAX= 164369
   dimension x,y,z NGX =    56 NGY =   56 NGZ =  180
   dimension x,y,z NGXF=   112 NGYF=  112 NGZF=  360
   support grid    NGXF=   224 NGYF=  224 NGZF=  720
   ions per type =              36   6  10   1   3
   NGX,Y,Z   is equivalent  to a cutoff of  11.01, 11.01, 11.12 a.u.
   NGXF,Y,Z  is equivalent  to a cutoff of  22.02, 22.02, 22.25 a.u.

 SYSTEM =  unknown system                          
 POSCAR =  Pt  C  H                                

 Startparameter for this run:
   NWRITE =      2    write-flag & timer
   PREC   = accura    normal or accurate (medium, high low for compatibility)
   ISTART =      0    job   : 0-new  1-cont  2-samecut
   ICHARG =      2    charge: 1-file 2-atom 10-const
   ISPIN  =      1    spin polarized calculation?
   LNONCOLLINEAR =      F non collinear calculations
   LSORBIT =      F    spin-orbit coupling
   INIWAV =      1    electr: 0-lowe 1-rand  2-diag
   LASPH  =      F    aspherical Exc in radial PAW
   METAGGA=      F    non-selfconsistent MetaGGA calc.

 Electronic Relaxation 1
   ENCUT  =  396.0 eV  29.11 Ry    5.39 a.u.  13.72 13.72 43.65*2*pi/ulx,y,z
   ENINI  =  396.0     initial cutoff
   ENAUG  =  644.9 eV  augmentation charge cutoff
   NELM   =   1000;   NELMIN=  2; NELMDL=  0     # of ELM steps 
   EDIFF  = 0.1E-05   stopping-criterion for ELM
   LREAL  =      T    real-space projection
   NLSPLINE    = F    spline interpolate recip. space projectors
   LCOMPAT=      F    compatible to vasp.4.4
   GGA_COMPAT  = T    GGA compatible to vasp.4.4-vasp.4.6
   LMAXPAW     = -100 max onsite density
   LMAXMIX     =    2 max onsite mixed and CHGCAR
   VOSKOWN=      0    Vosko Wilk Nusair interpolation
   ROPT   =   -0.00025  -0.00025  -0.00025  -0.00025
   ROPT   =   -0.00025
 Ionic relaxation
   EDIFFG = -.5E-01   stopping-criterion for IOM
   NSW    =   1000    number of steps for IOM
   NBLOCK =      1;   KBLOCK =   1000    inner block; outer block 
   IBRION =      2    ionic relax: 0-MD 1-quasi-New 2-CG
   NFREE  =      1    steps in history (QN), initial steepest desc. (CG)
   ISIF   =      0    stress and relaxation
   IWAVPR =     11    prediction:  0-non 1-charg 2-wave 3-comb
   ISYM   =      0    0-nonsym 1-usesym 2-fastsym
   LCORR  =      T    Harris-Foulkes like correction to forces

   POTIM  = 0.1000    time-step for ionic-motion
   TEIN   =    0.0    initial temperature
   TEBEG  =    0.0;   TEEND  =   0.0 temperature during run
   SMASS  =  -3.00    Nose mass-parameter (am)
   estimated Nose-frequenzy (Omega)   =  0.10E-29 period in steps =****** mass=  -0.163E-26a.u.
   SCALEE = 1.0000    scale energy and forces
   NPACO  =    256;   APACO  = 16.0  distance and # of slots for P.C.
   PSTRESS=    0.0 pullay stress

  Mass of Ions in am
   POMASS = 195.08 12.01  1.00 12.01  1.00
  Ionic Valenz
   ZVAL   =  10.00  4.00  1.00  4.00  1.00
  Atomic Wigner-Seitz radii
   RWIGS  =  -1.00 -1.00 -1.00 -1.00 -1.00
  virtual crystal weights 
   VCA    =   1.00  1.00  1.00  1.00  1.00
   NELECT =     401.0000    total number of electrons
   NUPDOWN=      -1.0000    fix difference up-down

 DOS related values:
   EMIN   =  10.00;   EMAX   =-10.00  energy-range for DOS
   EFERMI =   0.00
   ISMEAR =     2;   SIGMA  =   0.20  broadening in eV -4-tet -1-fermi 0-gaus

 Electronic relaxation 2 (details)
   IALGO  =     68    algorithm
   LDIAG  =      T    sub-space diagonalisation (order eigenvalues)
   LSUBROT=      F    optimize rotation matrix (better conditioning)
   TURBO    =      0    0=normal 1=particle mesh
   IRESTART =      0    0=no restart 2=restart with 2 vectors
   NREBOOT  =      0    no. of reboots
   NMIN     =      0    reboot dimension
   EREF     =   0.00    reference energy to select bands
   IMIX   =      4    mixing-type and parameters
     AMIX     =   0.40;   BMIX     =  4.00
     AMIX_MAG =   1.60;   BMIX_MAG =  4.00
     AMIN     =   0.10
     WC   =   100.;   INIMIX=   1;  MIXPRE=   1;  MAXMIX=  80

 Intra band minimization:
   WEIMIN = 0.0010     energy-eigenvalue tresh-hold
   EBREAK =  0.10E-08  absolut break condition
   DEPER  =   0.30     relativ break condition  

   TIME   =   0.40     timestep for ELM

  volume/ion in A,a.u.               =      29.75       200.74
  Fermi-wavevector in a.u.,A,eV,Ry     =   1.018384  1.924467 14.110691  1.037107
  Thomas-Fermi vector in A             =   2.151839
 
 Write flags
   LWAVE        =      F    write WAVECAR
   LDOWNSAMPLE  =      F    k-point downsampling of WAVECAR
   LCHARG       =      F    write CHGCAR
   LVTOT        =      F    write LOCPOT, total local potential
   LVHAR        =      F    write LOCPOT, Hartree potential only
   LELF         =      F    write electronic localiz. function (ELF)
   LORBIT       =      0    0 simple, 1 ext, 2 COOP (PROOUT), +10 PAW based schemes


 Dipole corrections
   LMONO  =      F    monopole corrections only (constant potential shift)
   LDIPOL =      F    correct potential (dipole corrections)
   IDIPOL =      0    1-x, 2-y, 3-z, 4-all directions 
   EPSILON=  1.0000000 bulk dielectric constant

 Exchange correlation treatment:
   GGA     =    OR    GGA type
   LEXCH   =    41    internal setting for exchange type
   VOSKOWN=      0    Vosko Wilk Nusair interpolation
   LHFCALC =     F    Hartree Fock is set to
   LHFONE  =     F    Hartree Fock one center treatment
   AEXX    =    0.0000 exact exchange contribution

 vdW DFT:
   LUSE_VDW   =     T    switch on vdW DFT
   Zab_VDW    =-.8491    correlation parameter
   PARAM1     =0.1234
   PARAM2     =1.0000
   PARAM3     =0.0000
   -- rVV10 --
   BPARAM     = 6.3000
   CPARAM     = 0.0093

 Linear response parameters
   LEPSILON=     F    determine dielectric tensor
   LRPA    =     F    only Hartree local field effects (RPA)
   LNABLA  =     F    use nabla operator in PAW spheres
   LVEL    =     F    velocity operator in full k-point grid
   LINTERFAST=   F  fast interpolation
   KINTER  =     0    interpolate to denser k-point grid
   CSHIFT  =0.1000    complex shift for real part using Kramers Kronig
   OMEGAMAX=  -1.0    maximum frequency
   DEG_THRESHOLD= 0.2000000E-02 threshold for treating states as degnerate
   RTIME   =   -0.100 relaxation time in fs
  (WPLASMAI=    0.000 imaginary part of plasma frequency in eV, 0.658/RTIME)
   DFIELD  = 0.0000000 0.0000000 0.0000000 field for delta impulse in time
 
 Orbital magnetization related:
   ORBITALMAG=     F  switch on orbital magnetization
   LCHIMAG   =     F  perturbation theory with respect to B field
   DQ        =  0.001000  dq finite difference perturbation B field
   LLRAUG    =     F  two centre corrections for induced B field



--------------------------------------------------------------------------------------------------------


 conjugate gradient relaxation of ions
   using selective dynamics as specified on POSCAR
 charge density and potential will be updated during run
 non-spin polarized calculation
 RMM-DIIS sequential band-by-band and
  variant of blocked Davidson during initial phase
 perform sub-space diagonalisation
    before iterative eigenvector-optimisation
 modified Broyden-mixing scheme, WC =      100.0
 initial mixing is a Kerker type mixing with AMIX =  0.4000 and BMIX =      4.0000
 Hartree-type preconditioning will be used
 using additional bands            39
 real space projection scheme for non local part
 use partial core corrections
 calculate Harris-corrections to forces 
   (improved forces if not selfconsistent)
 use gradient corrections 
 use of overlap-Matrix (Vanderbilt PP)
 Methfessel and Paxton  Order N= 2 SIGMA  =   0.20


--------------------------------------------------------------------------------------------------------


  energy-cutoff  :      396.00
  volume of cell :     1665.84
      direct lattice vectors                 reciprocal lattice vectors
     8.455582619  0.000000000  0.000000000     0.118265062 -0.068280376  0.000000000
     4.227791797  7.322749070  0.000000000     0.000000000  0.136560736  0.000000000
     0.000000000  0.000000000 26.903955460     0.000000000  0.000000000  0.037169256

  length of vectors
     8.455582619  8.455582619 26.903955460     0.136560736  0.136560736  0.037169256


 
 k-points in units of 2pi/SCALE and weight: Automatic mesh                          
   0.00000000  0.00000000  0.00000000       0.016
   0.01478313 -0.00853505  0.00000000       0.031
   0.02956627 -0.01707009  0.00000000       0.031
   0.04434940 -0.02560514  0.00000000       0.031
   0.05913253 -0.03414019  0.00000000       0.016
   0.00000000  0.01707009  0.00000000       0.031
   0.01478313  0.00853504  0.00000000       0.031
   0.02956627 -0.00000000  0.00000000       0.031
   0.04434940 -0.00853505  0.00000000       0.031
   0.05913253 -0.01707010  0.00000000       0.031
  -0.04434940  0.04267523  0.00000000       0.031
  -0.02956627  0.03414019  0.00000000       0.031
  -0.01478313  0.02560514  0.00000000       0.031
   0.00000000  0.03414018  0.00000000       0.031
   0.01478313  0.02560514  0.00000000       0.031
   0.02956627  0.01707009  0.00000000       0.031
   0.04434940  0.00853504  0.00000000       0.031
   0.05913253 -0.00000000  0.00000000       0.031
  -0.04434940  0.05974532  0.00000000       0.031
  -0.02956627  0.05121028  0.00000000       0.031
  -0.01478313  0.04267523  0.00000000       0.031
   0.00000000  0.05121028  0.00000000       0.031
   0.01478313  0.04267523  0.00000000       0.031
   0.02956627  0.03414018  0.00000000       0.031
   0.04434940  0.02560513  0.00000000       0.031
   0.05913253  0.01707009  0.00000000       0.031
  -0.04434940  0.07681542  0.00000000       0.031
  -0.02956627  0.06828037  0.00000000       0.031
  -0.01478313  0.05974532  0.00000000       0.031
   0.00000000  0.06828037  0.00000000       0.016
   0.01478313  0.05974532  0.00000000       0.031
   0.02956627  0.05121027  0.00000000       0.031
   0.04434940  0.04267523  0.00000000       0.031
   0.05913253  0.03414018  0.00000000       0.016
 
 k-points in reciprocal lattice and weights: Automatic mesh                          
   0.00000000  0.00000000  0.00000000       0.016
   0.12500000  0.00000000  0.00000000       0.031
   0.25000000  0.00000000  0.00000000       0.031
   0.37500000  0.00000000  0.00000000       0.031
   0.50000000  0.00000000  0.00000000       0.016
   0.00000000  0.12500000  0.00000000       0.031
   0.12500000  0.12500000  0.00000000       0.031
   0.25000000  0.12500000  0.00000000       0.031
   0.37500000  0.12500000  0.00000000       0.031
   0.50000000  0.12500000  0.00000000       0.031
  -0.37500000  0.12500000  0.00000000       0.031
  -0.25000000  0.12500000  0.00000000       0.031
  -0.12500000  0.12500000  0.00000000       0.031
   0.00000000  0.25000000  0.00000000       0.031
   0.12500000  0.25000000  0.00000000       0.031
   0.25000000  0.25000000  0.00000000       0.031
   0.37500000  0.25000000  0.00000000       0.031
   0.50000000  0.25000000  0.00000000       0.031
  -0.37500000  0.25000000  0.00000000       0.031
  -0.25000000  0.25000000  0.00000000       0.031
  -0.12500000  0.25000000  0.00000000       0.031
   0.00000000  0.37500000  0.00000000       0.031
   0.12500000  0.37500000  0.00000000       0.031
   0.25000000  0.37500000  0.00000000       0.031
   0.37500000  0.37500000  0.00000000       0.031
   0.50000000  0.37500000  0.00000000       0.031
  -0.37500000  0.37500000  0.00000000       0.031
  -0.25000000  0.37500000  0.00000000       0.031
  -0.12500000  0.37500000  0.00000000       0.031
   0.00000000  0.50000000  0.00000000       0.016
   0.12500000  0.50000000  0.00000000       0.031
   0.25000000  0.50000000  0.00000000       0.031
   0.37500000  0.50000000  0.00000000       0.031
   0.50000000  0.50000000  0.00000000       0.016
 
 position of ions in fractional coordinates (direct lattice) 
   0.00000000  0.00000000  0.37169256
   0.33333363  0.00000000  0.37169256
   0.66666727  0.00000000  0.37169256
   0.00000000  0.33333385  0.37169256
   0.33333289  0.33333385  0.37169256
   0.66666652  0.33333385  0.37169256
   0.00000001  0.66666633  0.37169256
   0.33333407  0.66666633  0.37169256
   0.66666646  0.66666633  0.37169256
   0.11111058  0.11111128  0.45723091
   0.44444419  0.11111128  0.45723091
   0.77777776  0.11111128  0.45723091
   0.11111174  0.44444374  0.45723091
   0.44444419  0.44444374  0.45723091
   0.77777777  0.44444374  0.45723091
   0.11111101  0.77777755  0.45723091
   0.44444464  0.77777755  0.45723091
   0.77777828  0.77777755  0.45723091
   0.21726398  0.22803058  0.54181580
   0.55181398  0.23046828  0.54400854
   0.88065344  0.23048090  0.54426142
   0.21714640  0.56185392  0.54194924
   0.55203646  0.55932694  0.54385882
   0.88388681  0.56188943  0.54215927
   0.21636558  0.89631727  0.54189553
   0.55047063  0.89567111  0.54210430
   0.88368681  0.89597652  0.54232548
   0.99044869  0.34616742  0.62871238
   0.32228055  0.34590606  0.62819609
   0.65452503  0.34967332  0.64023153
   0.32135552  0.68343052  0.62752840
   0.65623489  0.68133298  0.62854991
   0.98899865  0.68073765  0.62857880
   0.98864318  0.01482410  0.62946034
   0.32255137  0.01423414  0.62912247
   0.65607515  0.01373453  0.62893098
   0.44541493  0.31153573  0.80782858
   0.38686576  0.50488249  0.78959625
   0.42954269  0.50072874  0.73353593
   0.63140845  0.37088889  0.72100637
   0.69443776  0.17847364  0.74130112
   0.64866268  0.18107776  0.79735207
   0.45674415  0.56332409  0.81104590
   0.23892448  0.59695059  0.79486699
   0.38707528  0.64058301  0.72038650
   0.62475574  0.11670733  0.72088291
   0.84244277  0.08923831  0.73520007
   0.73218667  0.22138610  0.81974838
   0.68822185  0.04066040  0.80858964
   0.34387641  0.45517363  0.71397527
   0.36322738  0.26202601  0.78835649
   0.41708510  0.31293213  0.84785359
   0.75306490  0.44545547  0.73901048
   0.75058920  0.45256123  0.78009384
   0.70545891  0.58468357  0.72497446
   0.89635207  0.35748888  0.72708004
 
 position of ions in cartesian coordinates  (Angst):
   0.00000000  0.00000000 10.00000000
   2.81853008  0.00000000 10.00000000
   5.63706016  0.00000000 10.00000000
   1.40926612  2.44092012 10.00000000
   4.22778988  2.44092012 10.00000000
   7.04631996  2.44092012 10.00000000
   2.81852650  4.88183021 10.00000000
   5.63706016  4.88183021 10.00000000
   8.45557975  4.88183021 10.00000000
   1.40926003  0.81364000 12.30132009
   4.22778988  0.81364000 12.30132009
   7.04631949  0.81364000 12.30132009
   2.81853008  3.25454998 12.30132009
   5.63705015  3.25454998 12.30132009
   8.45557975  3.25454998 12.30132009
   4.22778987  5.69546985 12.30132009
   7.04631996  5.69546985 12.30132009
   9.86485004  5.69546985 12.30132009
   2.80115939  1.66981073 14.57698815
   5.64028063  1.68766139 14.63598150
   8.42086320  1.68775379 14.64278495
   4.21150072  4.11431526 14.58057821
   7.03250774  4.09581079 14.63195336
   9.84932950  4.11457534 14.58622888
   5.61893986  6.56350644 14.57913328
   8.44126088  6.55877480 14.58474981
  11.26008904  6.56101124 14.59070056
   9.83834452  2.53489718 16.91484995
   4.18748861  2.53298325 16.90095971
   7.01273647  2.56056998 17.22476046
   5.60665013  5.00459020 16.88299620
   8.42938231  4.98923042 16.91047881
  11.24057682  4.98487097 16.91125615
   8.42222733  0.10855317 16.93497306
   2.78753872  0.10423303 16.92588286
   5.60556439  0.10057451 16.92073118
   5.08335095  2.28129799 21.73378416
   5.40571339  3.69712775 21.24326226
   5.74901057  3.66671094 19.73501788
   6.90696734  2.71592630 19.39792321
   6.62642525  1.30691770 19.94393245
   6.25037993  1.32598701 21.45192471
   6.24365484  4.12508095 21.82034266
   4.54402845  4.37131934 21.38506612
   5.98119855  4.69082862 19.38124639
   5.77608806  0.85461851 19.39460181
   7.50062541  0.65346975 19.77978994
   7.12703918  1.62115485 22.05447385
   5.99122044  0.29774592 21.75425963
   4.83205477  3.33312227 19.20875889
   4.17909051  1.91875071 21.20990797
   4.84970941  2.29152348 22.81061536
   8.25089547  3.26195861 19.88230493
   8.26000365  3.31399236 20.98760987
   8.43698649  4.28149105 19.50468066
   9.09056756  2.61780136 19.56132888
 


--------------------------------------------------------------------------------------------------------


 k-point  1 :   0.0000 0.0000 0.0000  plane waves:   29865
 k-point  2 :   0.1250 0.0000 0.0000  plane waves:   29830
 k-point  3 :   0.2500 0.0000 0.0000  plane waves:   29798
 k-point  4 :   0.3750 0.0000 0.0000  plane waves:   29786
 k-point  5 :   0.5000 0.0000 0.0000  plane waves:   29806
 k-point  6 :   0.0000 0.1250 0.0000  plane waves:   29830
 k-point  7 :   0.1250 0.1250 0.0000  plane waves:   29830
 k-point  8 :   0.2500 0.1250 0.0000  plane waves:   29817
 k-point  9 :   0.3750 0.1250 0.0000  plane waves:   29820
 k-point 10 :   0.5000 0.1250 0.0000  plane waves:   29812
 k-point 11 :  -0.3750 0.1250 0.0000  plane waves:   29812
 k-point 12 :  -0.2500 0.1250 0.0000  plane waves:   29820
 k-point 13 :  -0.1250 0.1250 0.0000  plane waves:   29817
 k-point 14 :   0.0000 0.2500 0.0000  plane waves:   29798
 k-point 15 :   0.1250 0.2500 0.0000  plane waves:   29817
 k-point 16 :   0.2500 0.2500 0.0000  plane waves:   29798
 k-point 17 :   0.3750 0.2500 0.0000  plane waves:   29820
 k-point 18 :   0.5000 0.2500 0.0000  plane waves:   29770
 k-point 19 :  -0.3750 0.2500 0.0000  plane waves:   29794
 k-point 20 :  -0.2500 0.2500 0.0000  plane waves:   29770
 k-point 21 :  -0.1250 0.2500 0.0000  plane waves:   29820
 k-point 22 :   0.0000 0.3750 0.0000  plane waves:   29786
 k-point 23 :   0.1250 0.3750 0.0000  plane waves:   29820
 k-point 24 :   0.2500 0.3750 0.0000  plane waves:   29820
 k-point 25 :   0.3750 0.3750 0.0000  plane waves:   29786
 k-point 26 :   0.5000 0.3750 0.0000  plane waves:   29812
 k-point 27 :  -0.3750 0.3750 0.0000  plane waves:   29794
 k-point 28 :  -0.2500 0.3750 0.0000  plane waves:   29794
 k-point 29 :  -0.1250 0.3750 0.0000  plane waves:   29812
 k-point 30 :   0.0000 0.5000 0.0000  plane waves:   29806
 k-point 31 :   0.1250 0.5000 0.0000  plane waves:   29812
 k-point 32 :   0.2500 0.5000 0.0000  plane waves:   29770
 k-point 33 :   0.3750 0.5000 0.0000  plane waves:   29812
 k-point 34 :   0.5000 0.5000 0.0000  plane waves:   29806

 maximum and minimum number of plane-waves per node :      1881     1846

 maximum number of plane-waves:     29865
 maximum index in each direction: 
   IXMAX=   14   IYMAX=   13   IZMAX=   43
   IXMIN=  -14   IYMIN=  -14   IZMIN=  -43


 real space projection operators:
  total allocation   :      35028.76 KBytes
  max/ min on nodes  :       2519.34       1859.16


 parallel 3D FFT for wavefunctions:
    minimum data exchange during FFTs selected (reduces bandwidth)
 parallel 3D FFT for charge:
    minimum data exchange during FFTs selected (reduces bandwidth)


 total amount of memory used by VASP MPI-rank0    64336. kBytes
=======================================================================

   base      :      30000. kBytes
   nonlr-proj:       9227. kBytes
   fftplans  :       4394. kBytes
   grid      :       4856. kBytes
   one-center:         62. kBytes
   wavefun   :      15797. kBytes
 
     INWAV:  cpu time    0.0001: real time    0.0180
 Broyden mixing: mesh for mixing (old mesh)
   NGX = 27   NGY = 27   NGZ = 87
  (NGX  =112   NGY  =112   NGZ  =360)
  gives a total of  63423 points

 initial charge density was supplied:
 charge density of overlapping atoms calculated
 number of electron     401.0000000 magnetization 
 keeping initial charge density in first step


--------------------------------------------------------------------------------------------------------


 Maximum index for non-local projection operator           640
 Maximum index for augmentation-charges          3241 (set IRDMAX)


--------------------------------------------------------------------------------------------------------


 First call to EWALD:  gamma=   0.150
 Maximum number of real-space cells 4x 4x 1
 Maximum number of reciprocal cells 2x 2x 6

    FEWALD:  cpu time    0.0020: real time    0.0020


--------------------------------------- Iteration      1(   1)  ---------------------------------------


    POTLOK:  cpu time14559.8172: real time14560.8321
    SETDIJ:  cpu time    0.0447: real time    0.0447
     EDDAV:  cpu time    6.7690: real time    6.7699
       DOS:  cpu time    0.0018: real time    0.0018
    --------------------------------------------
      LOOP:  cpu time14566.6328: real time14567.6486

 eigenvalue-minimisations  : 16320
 total energy-change (2. order) : 0.3508301E+04  (-0.1441504E+05)
 number of electron     401.0000000 magnetization 
 augmentation part      401.0000000 magnetization 

 Free energy of the ion-electron system (eV)
  ---------------------------------------------------
  alpha Z        PSCENC =      1302.79366091
  Ewald energy   TEWEN  =    153736.26750491
  -Hartree energ DENC   =   -182490.02166436
  -exchange      EXHF   =         0.00000000
  -V(xc)+E(xc)   XCENC  =       217.36049130
  PAW double counting   =     20939.21213456   -19894.15184165
  entropy T*S    EENTRO =         0.00122182
  eigenvalues    EBANDS =      2176.59496268
  atomic energy  EATOM  =     27520.24434536
  Solvation  Ediel_sol  =         0.00000000
  ---------------------------------------------------
  free energy    TOTEN  =      3508.30081553 eV

  energy without entropy =     3508.29959371  energy(sigma->0) =     3508.30051008


--------------------------------------------------------------------------------------------------------




--------------------------------------- Iteration      1(   2)  ---------------------------------------


     EDDAV:  cpu time    6.7540: real time    6.7747
       DOS:  cpu time    0.0017: real time    0.0017
    --------------------------------------------
      LOOP:  cpu time    6.7557: real time    6.7764

 eigenvalue-minimisations  : 16912
 total energy-change (2. order) :-0.3323888E+04  (-0.3069189E+04)
 number of electron     401.0000000 magnetization 
 augmentation part      401.0000000 magnetization 

 Free energy of the ion-electron system (eV)
  ---------------------------------------------------
  alpha Z        PSCENC =      1302.79366091
  Ewald energy   TEWEN  =    153736.26750491
  -Hartree energ DENC   =   -182490.02166436
  -exchange      EXHF   =         0.00000000
  -V(xc)+E(xc)   XCENC  =       217.36049130
  PAW double counting   =     20939.21213456   -19894.15184165
  entropy T*S    EENTRO =         0.00048392
  eigenvalues    EBANDS =     -1147.29253921
  atomic energy  EATOM  =     27520.24434536
  Solvation  Ediel_sol  =         0.00000000
  ---------------------------------------------------
  free energy    TOTEN  =       184.41257575 eV

  energy without entropy =      184.41209182  energy(sigma->0) =      184.41245476


--------------------------------------------------------------------------------------------------------




--------------------------------------- Iteration      1(   3)  ---------------------------------------


     EDDAV:  cpu time    8.5978: real time    8.6096
       DOS:  cpu time    0.0018: real time    0.0018
    --------------------------------------------
      LOOP:  cpu time    8.5997: real time    8.6114

 eigenvalue-minimisations  : 23216
 total energy-change (2. order) :-0.4358330E+03  (-0.4090204E+03)
 number of electron     401.0000000 magnetization 
 augmentation part      401.0000000 magnetization 

 Free energy of the ion-electron system (eV)
  ---------------------------------------------------
  alpha Z        PSCENC =      1302.79366091
  Ewald energy   TEWEN  =    153736.26750491
  -Hartree energ DENC   =   -182490.02166436
  -exchange      EXHF   =         0.00000000
  -V(xc)+E(xc)   XCENC  =       217.36049130
  PAW double counting   =     20939.21213456   -19894.15184165
  entropy T*S    EENTRO =        -0.01279054
  eigenvalues    EBANDS =     -1583.11226566
  atomic energy  EATOM  =     27520.24434536
  Solvation  Ediel_sol  =         0.00000000
  ---------------------------------------------------
  free energy    TOTEN  =      -251.42042516 eV

  energy without entropy =     -251.40763462  energy(sigma->0) =     -251.41722753


--------------------------------------------------------------------------------------------------------




--------------------------------------- Iteration      1(   4)  ---------------------------------------


     EDDAV:  cpu time    8.6716: real time    8.6806
       DOS:  cpu time    0.0018: real time    0.0018
    --------------------------------------------
      LOOP:  cpu time    8.6734: real time    8.6823

 eigenvalue-minimisations  : 23600
 total energy-change (2. order) :-0.3014555E+02  (-0.2770278E+02)
 number of electron     401.0000000 magnetization 
 augmentation part      401.0000000 magnetization 

 Free energy of the ion-electron system (eV)
  ---------------------------------------------------
  alpha Z        PSCENC =      1302.79366091
  Ewald energy   TEWEN  =    153736.26750491
  -Hartree energ DENC   =   -182490.02166436
  -exchange      EXHF   =         0.00000000
  -V(xc)+E(xc)   XCENC  =       217.36049130
  PAW double counting   =     20939.21213456   -19894.15184165
  entropy T*S    EENTRO =        -0.08413816
  eigenvalues    EBANDS =     -1613.18646408
  atomic energy  EATOM  =     27520.24434536
  Solvation  Ediel_sol  =         0.00000000
  ---------------------------------------------------
  free energy    TOTEN  =      -281.56597121 eV

  energy without entropy =     -281.48183305  energy(sigma->0) =     -281.54493667


--------------------------------------------------------------------------------------------------------




--------------------------------------- Iteration      1(   5)  ---------------------------------------


     EDDAV:  cpu time    8.4264: real time    8.4429
       DOS:  cpu time    0.0018: real time    0.0018
    CHARGE:  cpu time    0.3409: real time    0.3409
    MIXING:  cpu time    0.0166: real time    0.0166
    --------------------------------------------
      LOOP:  cpu time    8.7857: real time    8.8023

 eigenvalue-minimisations  : 22848
 total energy-change (2. order) :-0.9008553E+00  (-0.8862354E+00)
 number of electron     401.0000005 magnetization 
 augmentation part      106.7534622 magnetization 

 Broyden mixing:
  rms(total) = 0.27701E+01    rms(broyden)= 0.27695E+01
  rms(prec ) = 0.29910E+01
  weight for this iteration     100.00

 Free energy of the ion-electron system (eV)
  ---------------------------------------------------
  alpha Z        PSCENC =      1302.79366091
  Ewald energy   TEWEN  =    153736.26750491
  -Hartree energ DENC   =   -182490.02166436
  -exchange      EXHF   =         0.00000000
  -V(xc)+E(xc)   XCENC  =       217.36049130
  PAW double counting   =     20939.21213456   -19894.15184165
  entropy T*S    EENTRO =        -0.08525657
  eigenvalues    EBANDS =     -1614.08620096
  atomic energy  EATOM  =     27520.24434536
  Solvation  Ediel_sol  =         0.00000000
  ---------------------------------------------------
  free energy    TOTEN  =      -282.46682649 eV

  energy without entropy =     -282.38156993  energy(sigma->0) =     -282.44551235


--------------------------------------------------------------------------------------------------------




--------------------------------------- Iteration      1(   6)  ---------------------------------------


    POTLOK:  cpu time    0.2144: real time    0.2315
    SETDIJ:  cpu time    0.0393: real time    0.0393
    EDDIAG:  cpu time    2.0902: real time    2.0905
  RMM-DIIS:  cpu time    3.1311: real time    3.1314
    ORTHCH:  cpu time    0.4370: real time    0.4371
       DOS:  cpu time    0.0019: real time    0.0019
    CHARGE:  cpu time    0.3110: real time    0.3110
    MIXING:  cpu time    0.0016: real time    0.0016
    --------------------------------------------
      LOOP:  cpu time    6.2265: real time    6.2442

 eigenvalue-minimisations  : 18152
 total energy-change (2. order) : 0.7236513E+01  (-0.1341888E+01)
 number of electron     401.0000005 magnetization 
 augmentation part      109.0903552 magnetization 

 Broyden mixing:
  rms(total) = 0.24190E+01    rms(broyden)= 0.24189E+01
  rms(prec ) = 0.30902E+01
  weight for this iteration     100.00

 eigenvalues of (default mixing * dielectric matrix)
  average eigenvalue GAMMA=   0.8536
  0.8536

 Free energy of the ion-electron system (eV)
  ---------------------------------------------------
  alpha Z        PSCENC =      1302.79366091
  Ewald energy   TEWEN  =    153736.26750491
  -Hartree energ DENC   =   -182187.66270207
  -exchange      EXHF   =         0.00000000
  -V(xc)+E(xc)   XCENC  =       215.36792330
  PAW double counting   =     20944.56750584   -19943.98695843
  entropy T*S    EENTRO =         0.01810728
  eigenvalues    EBANDS =     -1862.83970086
  atomic energy  EATOM  =     27520.24434536
  Solvation  Ediel_sol  =         0.00000000
  ---------------------------------------------------
  free energy    TOTEN  =      -275.23031377 eV

  energy without entropy =     -275.24842105  energy(sigma->0) =     -275.23484059


--------------------------------------------------------------------------------------------------------




--------------------------------------- Iteration      1(   7)  ---------------------------------------


    POTLOK:  cpu time    0.2016: real time    0.2213
    SETDIJ:  cpu time    0.0208: real time    0.0208
    EDDIAG:  cpu time    2.0793: real time    2.0794
  RMM-DIIS:  cpu time    3.1920: real time    3.1923
    ORTHCH:  cpu time    0.4355: real time    0.4355
       DOS:  cpu time    0.0020: real time    0.0020
    CHARGE:  cpu time    0.2998: real time    0.2998
    MIXING:  cpu time    0.0014: real time    0.0014
    --------------------------------------------
      LOOP:  cpu time    6.2324: real time    6.2525

 eigenvalue-minimisations  : 18424
 total energy-change (2. order) :-0.1648910E+02  (-0.1763119E+01)
 number of electron     401.0000005 magnetization 
 augmentation part      108.2123039 magnetization 

 Broyden mixing:
  rms(total) = 0.31747E+01    rms(broyden)= 0.31745E+01
  rms(prec ) = 0.52756E+01
  weight for this iteration     100.00

 eigenvalues of (default mixing * dielectric matrix)
  average eigenvalue GAMMA=   0.7647
  1.3719  0.1574

 Free energy of the ion-electron system (eV)
  ---------------------------------------------------
  alpha Z        PSCENC =      1302.79366091
  Ewald energy   TEWEN  =    153736.26750491
  -Hartree energ DENC   =   -182281.05684832
  -exchange      EXHF   =         0.00000000
  -V(xc)+E(xc)   XCENC  =       214.94743844
  PAW double counting   =     21021.68079642   -20031.59601899
  entropy T*S    EENTRO =        -0.01395647
  eigenvalues    EBANDS =     -1774.98633264
  atomic energy  EATOM  =     27520.24434536
  Solvation  Ediel_sol  =         0.00000000
  ---------------------------------------------------
  free energy    TOTEN  =      -291.71941038 eV

  energy without entropy =     -291.70545390  energy(sigma->0) =     -291.71592126


--------------------------------------------------------------------------------------------------------




--------------------------------------- Iteration      1(   8)  ---------------------------------------


    POTLOK:  cpu time    0.1965: real time    0.2259
    SETDIJ:  cpu time    0.0200: real time    0.0200
    EDDIAG:  cpu time    2.0694: real time    2.0695
  RMM-DIIS:  cpu time    3.0788: real time    3.0791
    ORTHCH:  cpu time    0.4354: real time    0.4355
       DOS:  cpu time    0.0019: real time    0.0019
    CHARGE:  cpu time    0.2994: real time    0.2994
    MIXING:  cpu time    0.0012: real time    0.0012
    --------------------------------------------
      LOOP:  cpu time    6.1025: real time    6.1325

 eigenvalue-minimisations  : 17975
 total energy-change (2. order) : 0.1803107E+02  (-0.1344888E+01)
 number of electron     401.0000005 magnetization 
 augmentation part      109.0105013 magnetization 

 Broyden mixing:
  rms(total) = 0.23694E+01    rms(broyden)= 0.23692E+01
  rms(prec ) = 0.30633E+01
  weight for this iteration     100.00

 eigenvalues of (default mixing * dielectric matrix)
  average eigenvalue GAMMA=   1.0559
  2.7492  0.2840  0.1345

 Free energy of the ion-electron system (eV)
  ---------------------------------------------------
  alpha Z        PSCENC =      1302.79366091
  Ewald energy   TEWEN  =    153736.26750491
  -Hartree energ DENC   =   -182397.12787460
  -exchange      EXHF   =         0.00000000
  -V(xc)+E(xc)   XCENC  =       214.39761028
  PAW double counting   =     21089.21048564   -20111.43074629
  entropy T*S    EENTRO =        -0.02261701
  eigenvalues    EBANDS =     -1628.02071456
  atomic energy  EATOM  =     27520.24434536
  Solvation  Ediel_sol  =         0.00000000
  ---------------------------------------------------
  free energy    TOTEN  =      -273.68834536 eV

  energy without entropy =     -273.66572835  energy(sigma->0) =     -273.68269111


--------------------------------------------------------------------------------------------------------




--------------------------------------- Iteration      1(   9)  ---------------------------------------


    POTLOK:  cpu time    0.2104: real time    0.2190
    SETDIJ:  cpu time    0.0203: real time    0.0203
    EDDIAG:  cpu time    2.0682: real time    2.0683
  RMM-DIIS:  cpu time    2.8690: real time    2.8693
    ORTHCH:  cpu time    0.4344: real time    0.4344
       DOS:  cpu time    0.0018: real time    0.0018
    CHARGE:  cpu time    0.2993: real time    0.2993
    MIXING:  cpu time    0.0012: real time    0.0012
    --------------------------------------------
      LOOP:  cpu time    5.9046: real time    5.9136

 eigenvalue-minimisations  : 16532
 total energy-change (2. order) : 0.1405763E+02  (-0.1923497E+01)
 number of electron     401.0000005 magnetization 
 augmentation part      112.5456051 magnetization 

 Broyden mixing:
  rms(total) = 0.13482E+01    rms(broyden)= 0.13480E+01
  rms(prec ) = 0.17984E+01
  weight for this iteration     100.00

 eigenvalues of (default mixing * dielectric matrix)
  average eigenvalue GAMMA=   1.0095
  2.8569  0.6915  0.3614  0.1284

 Free energy of the ion-electron system (eV)
  ---------------------------------------------------
  alpha Z        PSCENC =      1302.79366091
  Ewald energy   TEWEN  =    153736.26750491
  -Hartree energ DENC   =   -182143.72214867
  -exchange      EXHF   =         0.00000000
  -V(xc)+E(xc)   XCENC  =       212.41460986
  PAW double counting   =     21368.05321461   -20434.99859315
  entropy T*S    EENTRO =        -0.01417097
  eigenvalues    EBANDS =     -1820.66914105
  atomic energy  EATOM  =     27520.24434536
  Solvation  Ediel_sol  =         0.00000000
  ---------------------------------------------------
  free energy    TOTEN  =      -259.63071820 eV

  energy without entropy =     -259.61654722  energy(sigma->0) =     -259.62717545


--------------------------------------------------------------------------------------------------------




--------------------------------------- Iteration      1(  10)  ---------------------------------------


    POTLOK:  cpu time    0.2050: real time    0.2157
    SETDIJ:  cpu time    0.0203: real time    0.0203
    EDDIAG:  cpu time    2.0641: real time    2.0643
  RMM-DIIS:  cpu time    3.4171: real time    3.4174
    ORTHCH:  cpu time    0.4366: real time    0.4366
       DOS:  cpu time    0.0019: real time    0.0019
    CHARGE:  cpu time    0.2985: real time    0.2986
    MIXING:  cpu time    0.0013: real time    0.0013
    --------------------------------------------
      LOOP:  cpu time    6.4449: real time    6.4561

 eigenvalue-minimisations  : 20163
 total energy-change (2. order) : 0.1591086E+01  (-0.3704167E+00)
 number of electron     401.0000006 magnetization 
 augmentation part      113.2867677 magnetization 

 Broyden mixing:
  rms(total) = 0.86074E+00    rms(broyden)= 0.86069E+00
  rms(prec ) = 0.11803E+01
  weight for this iteration     100.00

 eigenvalues of (default mixing * dielectric matrix)
  average eigenvalue GAMMA=   0.9895
  2.7430  1.1005  0.1292  0.3324  0.6426

 Free energy of the ion-electron system (eV)
  ---------------------------------------------------
  alpha Z        PSCENC =      1302.79366091
  Ewald energy   TEWEN  =    153736.26750491
  -Hartree energ DENC   =   -182151.81647118
  -exchange      EXHF   =         0.00000000
  -V(xc)+E(xc)   XCENC  =       212.52622124
  PAW double counting   =     21460.25592996   -20521.31073091
  entropy T*S    EENTRO =        -0.06781768
  eigenvalues    EBANDS =     -1816.93227504
  atomic energy  EATOM  =     27520.24434536
  Solvation  Ediel_sol  =         0.00000000
  ---------------------------------------------------
  free energy    TOTEN  =      -258.03963242 eV

  energy without entropy =     -257.97181474  energy(sigma->0) =     -258.02267800


--------------------------------------------------------------------------------------------------------




--------------------------------------- Iteration      1(  11)  ---------------------------------------


    POTLOK:  cpu time    0.2010: real time    0.2188
    SETDIJ:  cpu time    0.0204: real time    0.0204
    EDDIAG:  cpu time    2.0702: real time    2.0705
  RMM-DIIS:  cpu time    2.9623: real time    2.9625
    ORTHCH:  cpu time    0.4356: real time    0.4356
       DOS:  cpu time    0.0019: real time    0.0019
    CHARGE:  cpu time    0.2984: real time    0.2984
    MIXING:  cpu time    0.0013: real time    0.0013
    --------------------------------------------
      LOOP:  cpu time    5.9910: real time    6.0093

 eigenvalue-minimisations  : 17128
 total energy-change (2. order) : 0.7009510E+00  (-0.1083481E+00)
 number of electron     401.0000006 magnetization 
 augmentation part      113.5211644 magnetization 

 Broyden mixing:
  rms(total) = 0.41012E+00    rms(broyden)= 0.41006E+00
  rms(prec ) = 0.44183E+00
  weight for this iteration     100.00

 eigenvalues of (default mixing * dielectric matrix)
  average eigenvalue GAMMA=   1.1359
  2.9771  1.7942  1.0018  0.1292  0.3385  0.5747

 Free energy of the ion-electron system (eV)
  ---------------------------------------------------
  alpha Z        PSCENC =      1302.79366091
  Ewald energy   TEWEN  =    153736.26750491
  -Hartree energ DENC   =   -182215.94242619
  -exchange      EXHF   =         0.00000000
  -V(xc)+E(xc)   XCENC  =       212.90351417
  PAW double counting   =     21585.51641613   -20635.42100627
  entropy T*S    EENTRO =        -0.05001829
  eigenvalues    EBANDS =     -1763.65067211
  atomic energy  EATOM  =     27520.24434536
  Solvation  Ediel_sol  =         0.00000000
  ---------------------------------------------------
  free energy    TOTEN  =      -257.33868138 eV

  energy without entropy =     -257.28866309  energy(sigma->0) =     -257.32617681


--------------------------------------------------------------------------------------------------------




--------------------------------------- Iteration      1(  12)  ---------------------------------------


    POTLOK:  cpu time    0.2046: real time    0.2178
    SETDIJ:  cpu time    0.0204: real time    0.0204
    EDDIAG:  cpu time    2.0680: real time    2.0682
  RMM-DIIS:  cpu time    2.9369: real time    2.9371
    ORTHCH:  cpu time    0.4322: real time    0.4323
       DOS:  cpu time    0.0019: real time    0.0019
    CHARGE:  cpu time    0.3004: real time    0.3004
    MIXING:  cpu time    0.0013: real time    0.0013
    --------------------------------------------
      LOOP:  cpu time    5.9659: real time    5.9796

 eigenvalue-minimisations  : 17049
 total energy-change (2. order) : 0.4308089E-01  (-0.8560334E-01)
 number of electron     401.0000006 magnetization 
 augmentation part      113.9466133 magnetization 

 Broyden mixing:
  rms(total) = 0.27359E+00    rms(broyden)= 0.27357E+00
  rms(prec ) = 0.29996E+00
  weight for this iteration     100.00

 eigenvalues of (default mixing * dielectric matrix)
  average eigenvalue GAMMA=   1.1702
  3.0760  2.3152  0.8915  0.8915  0.1292  0.3390  0.5489

 Free energy of the ion-electron system (eV)
  ---------------------------------------------------
  alpha Z        PSCENC =      1302.79366091
  Ewald energy   TEWEN  =    153736.26750491
  -Hartree energ DENC   =   -182274.10252502
  -exchange      EXHF   =         0.00000000
  -V(xc)+E(xc)   XCENC  =       213.31553834
  PAW double counting   =     21723.25510926   -20766.26096383
  entropy T*S    EENTRO =        -0.03914238
  eigenvalues    EBANDS =     -1712.76912804
  atomic energy  EATOM  =     27520.24434536
  Solvation  Ediel_sol  =         0.00000000
  ---------------------------------------------------
  free energy    TOTEN  =      -257.29560049 eV

  energy without entropy =     -257.25645811  energy(sigma->0) =     -257.28581489


--------------------------------------------------------------------------------------------------------




--------------------------------------- Iteration      1(  13)  ---------------------------------------


    POTLOK:  cpu time    0.2030: real time    0.2165
    SETDIJ:  cpu time    0.0200: real time    0.0201
    EDDIAG:  cpu time    2.0628: real time    2.0634
  RMM-DIIS:  cpu time    3.3599: real time    3.3601
    ORTHCH:  cpu time    0.4355: real time    0.4356
       DOS:  cpu time    0.0019: real time    0.0019
    CHARGE:  cpu time    0.2984: real time    0.2984
    MIXING:  cpu time    0.0013: real time    0.0013
    --------------------------------------------
      LOOP:  cpu time    6.3829: real time    6.3973

 eigenvalue-minimisations  : 19539
 total energy-change (2. order) :-0.2182504E-02  (-0.2840183E-01)
 number of electron     401.0000006 magnetization 
 augmentation part      114.1370257 magnetization 

 Broyden mixing:
  rms(total) = 0.21016E+00    rms(broyden)= 0.21015E+00
  rms(prec ) = 0.23520E+00
  weight for this iteration     100.00

 eigenvalues of (default mixing * dielectric matrix)
  average eigenvalue GAMMA=   1.2548
  3.0946  3.0946  1.1705  1.1705  0.1292  0.3382  0.5736  0.4673

 Free energy of the ion-electron system (eV)
  ---------------------------------------------------
  alpha Z        PSCENC =      1302.79366091
  Ewald energy   TEWEN  =    153736.26750491
  -Hartree energ DENC   =   -182299.68417101
  -exchange      EXHF   =         0.00000000
  -V(xc)+E(xc)   XCENC  =       213.62901918
  PAW double counting   =     21772.54239278   -20811.70023807
  entropy T*S    EENTRO =        -0.03830859
  eigenvalues    EBANDS =     -1691.35198847
  atomic energy  EATOM  =     27520.24434536
  Solvation  Ediel_sol  =         0.00000000
  ---------------------------------------------------
  free energy    TOTEN  =      -257.29778299 eV

  energy without entropy =     -257.25947441  energy(sigma->0) =     -257.28820584


--------------------------------------------------------------------------------------------------------




--------------------------------------- Iteration      1(  14)  ---------------------------------------


    POTLOK:  cpu time    0.2564: real time    0.3314
    SETDIJ:  cpu time    0.0216: real time    0.0216
    EDDIAG:  cpu time    2.0644: real time    2.0646
  RMM-DIIS:  cpu time    2.8842: real time    2.8845
    ORTHCH:  cpu time    0.4344: real time    0.4344
       DOS:  cpu time    0.0018: real time    0.0018
    CHARGE:  cpu time    0.2996: real time    0.2996
    MIXING:  cpu time    0.0014: real time    0.0014
    --------------------------------------------
      LOOP:  cpu time    5.9639: real time    6.0393

 eigenvalue-minimisations  : 16680
 total energy-change (2. order) : 0.1857474E-01  (-0.8579386E-02)
 number of electron     401.0000006 magnetization 
 augmentation part      114.1849262 magnetization 

 Broyden mixing:
  rms(total) = 0.12870E+00    rms(broyden)= 0.12870E+00
  rms(prec ) = 0.15004E+00
  weight for this iteration     100.00

 eigenvalues of (default mixing * dielectric matrix)
  average eigenvalue GAMMA=   1.3718
  3.5396  3.5396  1.7622  0.9877  0.9877  0.1292  0.3386  0.6061  0.4558

 Free energy of the ion-electron system (eV)
  ---------------------------------------------------
  alpha Z        PSCENC =      1302.79366091
  Ewald energy   TEWEN  =    153736.26750491
  -Hartree energ DENC   =   -182329.09400711
  -exchange      EXHF   =         0.00000000
  -V(xc)+E(xc)   XCENC  =       214.15586997
  PAW double counting   =     21802.93915585   -20838.10138199
  entropy T*S    EENTRO =        -0.03728106
  eigenvalues    EBANDS =     -1666.44707511
  atomic energy  EATOM  =     27520.24434536
  Solvation  Ediel_sol  =         0.00000000
  ---------------------------------------------------
  free energy    TOTEN  =      -257.27920825 eV

  energy without entropy =     -257.24192720  energy(sigma->0) =     -257.26988799


--------------------------------------------------------------------------------------------------------




--------------------------------------- Iteration      1(  15)  ---------------------------------------


    POTLOK:  cpu time    0.2053: real time    0.2212
    SETDIJ:  cpu time    0.0202: real time    0.0202
    EDDIAG:  cpu time    2.0613: real time    2.0614
  RMM-DIIS:  cpu time    2.8628: real time    2.8630
    ORTHCH:  cpu time    0.4340: real time    0.4341
       DOS:  cpu time    0.0018: real time    0.0018
    CHARGE:  cpu time    0.3009: real time    0.3009
    MIXING:  cpu time    0.0015: real time    0.0015
    --------------------------------------------
      LOOP:  cpu time    5.8879: real time    5.9041

 eigenvalue-minimisations  : 16418
 total energy-change (2. order) : 0.1040134E-01  (-0.6912694E-02)
 number of electron     401.0000006 magnetization 
 augmentation part      114.1391413 magnetization 

 Broyden mixing:
  rms(total) = 0.81569E-01    rms(broyden)= 0.81561E-01
  rms(prec ) = 0.99803E-01
  weight for this iteration     100.00

 eigenvalues of (default mixing * dielectric matrix)
  average eigenvalue GAMMA=   1.3903
  4.2028  3.4489  1.9152  1.1065  1.1065  0.1292  0.3386  0.6000  0.6000  0.4550

 Free energy of the ion-electron system (eV)
  ---------------------------------------------------
  alpha Z        PSCENC =      1302.79366091
  Ewald energy   TEWEN  =    153736.26750491
  -Hartree energ DENC   =   -182355.24429155
  -exchange      EXHF   =         0.00000000
  -V(xc)+E(xc)   XCENC  =       214.66722238
  PAW double counting   =     21811.35895611   -20844.74764739
  entropy T*S    EENTRO =        -0.03851906
  eigenvalues    EBANDS =     -1642.57003859
  atomic energy  EATOM  =     27520.24434536
  Solvation  Ediel_sol  =         0.00000000
  ---------------------------------------------------
  free energy    TOTEN  =      -257.26880691 eV

  energy without entropy =     -257.23028785  energy(sigma->0) =     -257.25917715


--------------------------------------------------------------------------------------------------------




--------------------------------------- Iteration      1(  16)  ---------------------------------------


    POTLOK:  cpu time    0.2044: real time    0.2164
    SETDIJ:  cpu time    0.0197: real time    0.0197
    EDDIAG:  cpu time    2.0699: real time    2.0701
  RMM-DIIS:  cpu time    3.0761: real time    3.0764
    ORTHCH:  cpu time    0.4351: real time    0.4351
       DOS:  cpu time    0.0019: real time    0.0019
[...]
 total charge-density along one line
 
 pseudopotential strength for first ion, spin component:            1
-10.506  -0.001   0.000  -0.009   0.000   0.142   0.000  -0.000
 -0.001 -10.396   0.001  -0.001  -0.011   0.000   0.128  -0.000
  0.000   0.001 -10.384  -0.001  -0.001  -0.000  -0.000   0.126
 -0.009  -0.001  -0.001 -10.395  -0.001   0.001   0.000   0.000
  0.000  -0.011  -0.001  -0.001 -10.506  -0.000   0.001   0.000
  0.142   0.000  -0.000   0.001  -0.000   0.181  -0.000   0.000
  0.000   0.128  -0.000   0.000   0.001  -0.000   0.183   0.000
 -0.000  -0.000   0.126   0.000   0.000   0.000   0.000   0.183
  0.001   0.000   0.000   0.128   0.000  -0.000  -0.000  -0.000
 -0.000   0.001   0.000   0.000   0.142   0.000  -0.000  -0.000
  0.000  -0.001  -0.034   0.001  -0.000  -0.000   0.000   0.003
 -0.000   0.000   0.002  -0.000   0.000   0.000  -0.000  -0.000
 -0.000  -0.002   0.000  -0.000   0.001   0.000   0.001  -0.000
 -0.000  -0.000  -0.005  -0.000   0.000  -0.000   0.000   0.001
  0.000  -0.000   0.000  -0.002  -0.000   0.000  -0.000  -0.000
  0.000   0.004  -0.000  -0.000  -0.000  -0.000  -0.001   0.000
 -0.000   0.000   0.005   0.000  -0.000   0.000  -0.000  -0.001
 -0.000  -0.000  -0.000   0.004   0.000  -0.000   0.000   0.000
 total augmentation occupancy for first ion, spin component:            1
  1.648  -0.002   0.000  -0.052   0.001   0.127   0.001   0.000   0.036  -0.000   0.000   0.000  -0.000   0.000   0.001  -0.000
 -0.002   1.830   0.003  -0.001  -0.053   0.001  -0.020  -0.002   0.001   0.040   0.001  -0.001  -0.010  -0.002   0.000  -0.000
  0.000   0.003   1.775  -0.003  -0.002   0.000  -0.002   0.029   0.002   0.000   0.046  -0.007   0.000   0.032   0.000   0.000
 -0.052  -0.001  -0.003   1.831   0.000   0.039   0.001   0.002  -0.021  -0.000  -0.000   0.002   0.000   0.001  -0.011  -0.000
  0.001  -0.053  -0.002   0.000   1.650  -0.000   0.037   0.000  -0.000   0.127  -0.002  -0.001   0.001   0.000   0.000   0.000
  0.127   0.001   0.000   0.039  -0.000   0.209  -0.001  -0.000   0.005   0.000   0.000   0.000   0.000  -0.000   0.011  -0.000
  0.001  -0.020  -0.002   0.001   0.037  -0.001   0.178   0.001  -0.001   0.004  -0.002   0.000   0.057   0.001  -0.000  -0.003
  0.000  -0.002   0.029   0.002   0.000  -0.000   0.001   0.236  -0.002  -0.000  -0.169   0.029  -0.000   0.086   0.000  -0.000
  0.036   0.001   0.002  -0.021  -0.000   0.005  -0.001  -0.002   0.180  -0.000   0.002   0.000   0.000  -0.000   0.057   0.000
 -0.000   0.040   0.000  -0.000   0.127   0.000   0.004  -0.000  -0.000   0.209   0.001   0.000   0.012   0.000  -0.000  -0.000
  0.000   0.001   0.046  -0.000  -0.002   0.000  -0.002  -0.169   0.002   0.001   1.130  -0.293   0.000   0.064   0.000  -0.000
  0.000  -0.001  -0.007   0.002  -0.001   0.000   0.000   0.029   0.000   0.000  -0.293   0.124   0.000  -0.054   0.000  -0.000
 -0.000  -0.010   0.000   0.000   0.001   0.000   0.057  -0.000   0.000   0.012   0.000   0.000   0.174  -0.000   0.000  -0.007
  0.000  -0.002   0.032   0.001   0.000  -0.000   0.001   0.086  -0.000   0.000   0.064  -0.054  -0.000   0.096   0.000  -0.000
  0.001   0.000   0.000  -0.011   0.000   0.011  -0.000   0.000   0.057  -0.000   0.000   0.000   0.000   0.000   0.173  -0.000
 -0.000  -0.000   0.000  -0.000   0.000  -0.000  -0.003  -0.000   0.000  -0.000  -0.000  -0.000  -0.007  -0.000  -0.000   0.000
 -0.000   0.000  -0.007  -0.000   0.000  -0.000  -0.000  -0.003   0.000   0.000  -0.005   0.003   0.000  -0.004   0.000  -0.000
  0.000  -0.000   0.000  -0.000  -0.000  -0.000   0.000   0.000  -0.003   0.000  -0.000   0.000  -0.000  -0.000  -0.007  -0.000


------------------------ aborting loop because EDIFF is reached ----------------------------------------


    CHARGE:  cpu time    0.3046: real time    0.3046
    FORLOC:  cpu time    0.0030: real time    0.0030
    FORNL :  cpu time    1.2594: real time    1.2595
    FORCOR:  cpu time    0.2053: real time    0.2053
    FORHAR:  cpu time    0.0065: real time    0.0065
    MIXING:  cpu time    0.0035: real time    0.0035
    OFIELD:  cpu time    0.0000: real time    0.0000

 VOLUME and BASIS-vectors are now :
 -----------------------------------------------------------------------------
  energy-cutoff  :      396.00
  volume of cell :     1665.84
      direct lattice vectors                 reciprocal lattice vectors
     8.455582619  0.000000000  0.000000000     0.118265062 -0.068280376  0.000000000
     4.227791797  7.322749070  0.000000000     0.000000000  0.136560736  0.000000000
     0.000000000  0.000000000 26.903955460     0.000000000  0.000000000  0.037169256

  length of vectors
     8.455582619  8.455582619 26.903955460     0.136560736  0.136560736  0.037169256


 FORCES acting on ions
    electron-ion (+dipol)            ewald-force                    non-local-force                 convergence-correction
 -----------------------------------------------------------------------------------------------
   0.254E+00 -.612E+00 0.271E+04   -.219E+00 0.600E+00 -.271E+04   -.324E-02 -.432E-02 0.163E+00   0.307E-03 -.442E-03 -.179E-02
   -.784E-02 -.152E-02 0.271E+04   0.247E-01 -.418E-01 -.271E+04   -.102E-01 0.250E-01 0.162E+00   -.530E-03 0.272E-03 -.186E-02
   -.201E+00 -.491E+00 0.271E+04   0.192E+00 0.475E+00 -.271E+04   -.429E-02 -.600E-02 0.157E+00   0.228E-03 0.518E-03 -.188E-02
   0.653E+00 0.968E-01 0.271E+04   -.649E+00 -.158E+00 -.271E+04   0.889E-02 0.125E-01 0.169E+00   0.527E-03 -.351E-03 -.188E-02
   -.533E+00 0.177E+00 0.271E+04   0.549E+00 -.231E+00 -.271E+04   -.168E-01 0.903E-02 0.157E+00   0.354E-04 0.599E-03 -.180E-02
   -.895E-01 0.648E-01 0.271E+04   0.983E-01 -.997E-01 -.271E+04   -.229E-03 0.989E-02 0.141E+00   -.559E-03 0.241E-04 -.179E-02
   0.123E+00 -.164E+00 0.271E+04   -.110E+00 0.127E+00 -.271E+04   -.559E-02 0.125E-01 0.166E+00   0.110E-02 -.325E-03 -.180E-02
   -.407E+00 0.290E+00 0.271E+04   0.441E+00 -.309E+00 -.271E+04   -.116E-01 0.125E-01 0.153E+00   -.741E-03 -.155E-03 -.178E-02
   0.321E+00 0.320E+00 0.271E+04   -.333E+00 -.347E+00 -.271E+04   0.101E-01 0.187E-01 0.161E+00   -.365E-03 -.148E-03 -.193E-02
   0.533E+01 -.352E+01 0.109E+04   -.531E+01 0.347E+01 -.109E+04   -.583E-01 0.106E+00 -.437E-01   -.172E-03 -.130E-03 -.604E-02
   -.449E+01 -.238E+01 0.109E+04   0.447E+01 0.232E+01 -.109E+04   0.266E-01 0.100E+00 -.228E-01   -.631E-04 0.442E-03 -.612E-02
   -.298E+00 -.468E+01 0.109E+04   0.302E+00 0.475E+01 -.109E+04   -.120E-01 0.607E-01 0.559E-01   0.239E-03 0.455E-04 -.572E-02
   0.105E+01 0.211E+00 0.110E+04   -.105E+01 -.235E+00 -.110E+04   -.232E-01 0.863E-01 -.623E-01   0.401E-03 0.376E-04 -.634E-02
   -.393E+01 0.193E+01 0.109E+04   0.402E+01 -.200E+01 -.109E+04   -.391E-01 0.792E-01 0.436E-01   -.274E-03 0.164E-03 -.642E-02
   0.341E+01 0.219E+01 0.109E+04   -.350E+01 -.225E+01 -.109E+04   0.618E-02 0.605E-01 0.477E-01   -.142E-03 -.358E-03 -.543E-02
   -.418E-01 -.211E+01 0.110E+04   0.525E-01 0.211E+01 -.110E+04   -.374E-01 0.566E-01 -.510E-01   0.177E-03 -.134E-03 -.644E-02
   -.326E+00 0.378E+01 0.109E+04   0.354E+00 -.374E+01 -.109E+04   -.290E-01 -.690E-03 0.810E-02   -.639E-03 -.580E-04 -.586E-02
   0.974E+00 -.165E+01 0.110E+04   -.996E+00 0.165E+01 -.110E+04   0.140E-01 0.507E-01 -.487E-01   0.473E-03 -.151E-04 -.548E-02
   0.235E+01 0.269E+01 -.525E+03   -.236E+01 -.275E+01 0.524E+03   0.788E-02 0.544E-01 0.196E+00   -.533E-03 -.114E-03 -.443E-02
   -.306E+01 0.218E+01 -.549E+03   0.338E+01 -.201E+01 0.550E+03   -.300E+00 -.171E+00 -.136E+00   0.671E-03 -.322E-03 -.435E-02
   0.305E+00 0.110E+01 -.558E+03   -.647E+00 -.906E+00 0.558E+03   0.329E+00 -.190E+00 -.137E+00   -.109E-03 0.110E-03 -.357E-02
   0.360E+01 -.207E+01 -.520E+03   -.354E+01 0.203E+01 0.520E+03   -.507E-01 0.332E-01 0.805E-01   -.180E-03 0.305E-03 -.494E-02
   -.272E+01 0.190E+01 -.547E+03   0.273E+01 -.224E+01 0.547E+03   -.783E-02 0.322E+00 -.908E-01   0.633E-03 -.294E-03 -.407E-02
   -.101E+01 -.753E+00 -.528E+03   0.943E+00 0.714E+00 0.528E+03   0.600E-01 0.280E-01 0.119E+00   -.408E-03 -.680E-04 -.391E-02
   -.877E+00 -.440E+01 -.526E+03   0.885E+00 0.446E+01 0.526E+03   -.144E-01 -.493E-01 0.163E+00   -.167E-03 0.307E-03 -.452E-02
   0.113E+01 -.101E+01 -.529E+03   -.116E+01 0.104E+01 0.529E+03   0.296E-01 -.326E-01 0.170E+00   0.175E-03 -.257E-03 -.411E-02
   -.240E+00 0.399E+00 -.531E+03   0.246E+00 -.317E+00 0.531E+03   -.462E-02 -.750E-01 0.124E+00   -.204E-04 0.323E-03 -.428E-02
   -.521E+02 0.756E+01 -.214E+04   0.522E+02 -.762E+01 0.214E+04   -.135E+00 0.493E-01 0.389E-01   -.124E-03 -.296E-03 -.111E-02
   0.686E+02 0.875E+01 -.210E+04   -.689E+02 -.893E+01 0.210E+04   0.287E+00 0.166E+00 0.180E+00   -.707E-03 -.124E-03 0.779E-03
   -.263E+02 0.190E+02 -.206E+04   0.264E+02 -.189E+02 0.206E+04   -.463E-02 -.164E+00 -.281E+01   0.503E-03 0.245E-03 -.360E-03
   0.271E+02 -.641E+02 -.209E+04   -.271E+02 0.646E+02 0.209E+04   0.239E-01 -.479E+00 0.584E+00   0.191E-03 0.623E-03 0.367E-03
   -.346E+02 -.520E+02 -.212E+04   0.346E+02 0.523E+02 0.212E+04   -.257E-01 -.251E+00 0.909E-01   0.279E-03 0.533E-04 0.356E-04
   0.678E+01 -.406E+01 -.218E+04   -.684E+01 0.417E+01 0.218E+04   0.642E-01 -.114E+00 -.316E+00   -.495E-03 0.113E-03 0.465E-03
   -.330E+02 0.434E+02 -.215E+04   0.331E+02 -.433E+02 0.215E+04   -.174E-01 -.899E-01 -.173E+00   0.188E-03 0.401E-03 -.160E-03
   0.656E+01 -.441E+00 -.220E+04   -.657E+01 0.534E+00 0.220E+04   0.145E-01 -.103E+00 -.327E+00   -.475E-03 0.112E-04 0.759E-03
   0.257E+02 0.584E+02 -.212E+04   -.258E+02 -.585E+02 0.212E+04   0.112E+00 0.808E-01 0.193E+00   0.351E-03 -.487E-03 0.101E-04
   0.117E+03 0.333E+02 -.972E+03   -.117E+03 -.333E+02 0.972E+03   0.271E-01 0.331E-01 -.126E+00   0.253E-03 0.101E-02 -.446E-03
   0.546E+02 -.127E+03 -.100E+04   -.548E+02 0.126E+03 0.100E+04   0.261E+00 0.196E+00 -.514E+00   -.841E-04 0.496E-03 -.485E-03
   0.709E+02 -.111E+03 -.984E+03   -.711E+02 0.111E+03 0.984E+03   0.198E+00 -.228E+00 0.126E+00   0.672E-03 0.147E-02 0.140E-02
   -.395E+02 -.440E+01 -.981E+03   0.393E+02 0.422E+01 0.981E+03   0.212E+00 0.190E+00 -.358E+00   0.939E-04 0.154E-02 0.118E-02
   -.219E+02 0.143E+03 -.989E+03   0.220E+02 -.143E+03 0.989E+03   -.951E-01 0.554E+00 0.134E+00   0.284E-03 0.457E-03 0.102E-02
   -.290E+02 0.118E+03 -.998E+03   0.286E+02 -.118E+03 0.999E+03   0.354E+00 -.670E-01 -.285E+00   -.105E-03 0.149E-02 0.880E-03
   -.372E+02 -.454E+02 -.263E+03   0.413E+02 0.476E+02 0.266E+03   -.414E+01 -.220E+01 -.291E+01   -.726E-04 0.697E-04 -.208E-03
   0.525E+02 -.497E+02 -.244E+03   -.568E+02 0.531E+02 0.245E+03   0.431E+01 -.341E+01 -.737E+00   0.260E-03 -.893E-04 -.509E-04
   -.242E+01 -.699E+02 -.249E+03   0.353E+01 0.750E+02 0.247E+03   -.111E+01 -.507E+01 0.170E+01   0.694E-04 -.276E-03 0.450E-03
   0.448E+02 0.456E+02 -.236E+03   -.490E+02 -.479E+02 0.234E+03   0.416E+01 0.227E+01 0.270E+01   -.183E-03 -.117E-03 0.233E-04
   -.494E+02 0.545E+02 -.252E+03   0.538E+02 -.579E+02 0.251E+03   -.438E+01 0.335E+01 0.881E+00   0.210E-03 0.638E-04 0.217E-03
   -.541E+02 0.321E+01 -.261E+03   0.585E+02 -.181E+01 0.264E+03   -.437E+01 -.140E+01 -.305E+01   0.200E-03 0.325E-03 0.140E-03
   0.115E+02 0.690E+02 -.245E+03   -.128E+02 -.742E+02 0.246E+03   0.128E+01 0.518E+01 -.155E+01   -.152E-03 -.451E-04 0.209E-03
   0.618E+02 0.161E+01 -.237E+03   -.663E+02 -.318E+01 0.234E+03   0.453E+01 0.156E+01 0.257E+01   0.229E-03 0.261E-03 0.312E-03
   0.692E+02 0.265E+02 -.217E+03   -.737E+02 -.283E+02 0.215E+03   0.450E+01 0.180E+01 0.254E+01   0.930E-04 0.226E-03 0.128E-03
   0.259E+02 0.305E+01 -.257E+03   -.271E+02 -.302E+01 0.262E+03   0.122E+01 -.394E-01 -.541E+01   0.245E-04 0.166E-03 -.427E-04
   -.145E+03 -.543E+02 -.106E+04   0.145E+03 0.544E+02 0.106E+04   -.372E+00 -.789E-01 0.696E+00   0.651E-03 0.652E-03 0.733E-03
   -.315E+02 -.142E+02 -.295E+03   0.317E+02 0.144E+02 0.301E+03   -.146E+00 -.281E+00 -.540E+01   0.419E-04 0.420E-04 0.209E-03
   -.286E+02 -.585E+02 -.255E+03   0.296E+02 0.637E+02 0.253E+03   -.999E+00 -.512E+01 0.186E+01   0.526E-04 -.172E-03 0.280E-03
   -.605E+02 0.261E+02 -.256E+03   0.648E+02 -.293E+02 0.255E+03   -.427E+01 0.322E+01 0.158E+01   -.275E-03 0.351E-03 0.292E-03
 -----------------------------------------------------------------------------------------------
   -.137E+01 -.158E+00 0.634E+01   0.227E-12 -.284E-13 0.509E-11   0.136E+01 0.150E+00 -.624E+01   0.204E-02 0.844E-02 -.102E+00
 
 
 POSITION                                       TOTAL-FORCE (eV/Angst)
 -----------------------------------------------------------------------------------
      0.00000      0.00000     10.00000         0.031799     -0.016376     -0.183693
      2.81853      0.00000     10.00000         0.006227     -0.018139     -0.291043
      5.63706      0.00000     10.00000        -0.013690     -0.021065     -0.180268
      1.40927      2.44092     10.00000         0.013547     -0.049425     -0.189123
      4.22779      2.44092     10.00000         0.000070     -0.044689     -0.187882
      7.04632      2.44092     10.00000         0.008144     -0.025033     -0.175906
      2.81853      4.88183     10.00000         0.008643     -0.025629     -0.175908
      5.63706      4.88183     10.00000         0.022042     -0.007309     -0.193453
      8.45558      4.88183     10.00000        -0.002529     -0.008543     -0.185836
      1.40926      0.81364     12.30132        -0.031061      0.051827      0.071921
      4.22779      0.81364     12.30132         0.010830      0.044657      0.051138
      7.04632      0.81364     12.30132        -0.007634      0.139387      0.360109
      2.81853      3.25455     12.30132        -0.020030      0.062113      0.063167
      5.63705      3.25455     12.30132         0.056970      0.006257      0.329212
      8.45558      3.25455     12.30132        -0.078194     -0.003013      0.358268
      4.22779      5.69547     12.30132        -0.026390      0.056001      0.066947
      7.04632      5.69547     12.30132        -0.000996      0.033152      0.040883
      9.86485      5.69547     12.30132        -0.007548      0.049887      0.085888
      2.80116      1.66981     14.57699        -0.006101     -0.001942      0.016173
      5.64028      1.68766     14.63598         0.018260      0.002235      0.004213
      8.42086      1.68775     14.64278        -0.012283     -0.001295     -0.000280
      4.21150      4.11432     14.58058         0.004809     -0.007817      0.025272
      7.03251      4.09581     14.63195         0.003117     -0.023770      0.005584
      9.84933      4.11458     14.58623        -0.006198     -0.010831      0.027308
      5.61894      6.56351     14.57913        -0.005915      0.005180      0.009294
      8.44126      6.55877     14.58475         0.007185     -0.003941      0.010561
     11.26009      6.56101     14.59070         0.001801      0.008032      0.028532
      9.83834      2.53490     16.91485        -0.017420     -0.011481      0.006629
      4.18749      2.53298     16.90096         0.018290     -0.014038      0.005272
      7.01274      2.56057     17.22476         0.002896     -0.005710      0.008946
      5.60665      5.00459     16.88300         0.012965     -0.013282      0.008120
      8.42938      4.98923     16.91048        -0.011913     -0.011691      0.004255
     11.24058      4.98487     16.91126         0.001806     -0.002697      0.004335
      8.42223      0.10855     16.93497        -0.001052      0.007808      0.008943
      2.78754      0.10423     16.92588         0.003169     -0.009335      0.014139
      5.60556      0.10057     16.92073        -0.002049      0.006861      0.006551
      5.08371      2.28044     21.73458        -0.002245     -0.010548      0.010422
      5.40606      3.69693     21.24393         0.002891     -0.016173      0.008948
      5.74986      3.66607     19.73451        -0.010909     -0.008913      0.025277
      6.90630      2.71436     19.39833         0.011865      0.018847     -0.004194
      6.62641      1.30623     19.94387         0.008913      0.000519      0.013305
      6.25119      1.32499     21.45177        -0.005778     -0.000858      0.011110
      6.24442      4.12406     21.82112         0.005205     -0.010900      0.006662
      4.54379      4.37060     21.38647         0.006431     -0.010379      0.011064
      5.97969      4.69065     19.38186        -0.006255     -0.000843      0.001187
      5.77629      0.85595     19.39565        -0.020983     -0.001288     -0.002930
      7.49968      0.65293     19.77906        -0.001765     -0.013983     -0.010013
      7.12765      1.62099     22.05409         0.008437     -0.005110     -0.003269
      5.99172      0.29689     21.75428         0.009011     -0.010673      0.000383
      4.83259      3.33257     19.21028        -0.004281     -0.011125      0.008340
      4.17855      1.91761     21.21058         0.007424     -0.007776      0.013428
      4.84932      2.29047     22.81206         0.003687     -0.012707     -0.002347
      8.25139      3.26141     19.88096        -0.019918     -0.010580      0.010956
      8.26248      3.31155     20.98621         0.006417     -0.011239      0.016100
      8.43657      4.28174     19.50534        -0.002694      0.008907     -0.000076
      9.08897      2.61846     19.56789         0.022983     -0.021525      0.027379
 -----------------------------------------------------------------------------------
    total drift:                               -0.005195      0.000407     -0.000100


--------------------------------------------------------------------------------------------------------



  FREE ENERGIE OF THE ION-ELECTRON SYSTEM (eV)
  ---------------------------------------------------
  free  energy   TOTEN  =      -257.26864078 eV

  energy  without entropy=     -257.22899862  energy(sigma->0) =     -257.25873024
 
 d Force = 0.3144374E-03[ 0.183E-03, 0.446E-03]  d Energy = 0.3121087E-03 0.233E-05
 d Force = 0.2213586E+01[ 0.221E+01, 0.221E+01]  d Ewald  = 0.2213585E+01 0.219E-06


--------------------------------------------------------------------------------------------------------


    POTLOK:  cpu time    0.2086: real time    0.2104


--------------------------------------------------------------------------------------------------------


 stress matrix after NEB project (eV)
      0.00000      0.00000      0.00000
      0.00000      0.00000      0.00000
      0.00000      0.00000      0.00000
  FORCES: max atom, RMS     0.041727    0.011547
  FORCE total and by dimension    0.086412    0.027379
  Stress total and by dimension    0.000000    0.000000


--------------------------------------------------------------------------------------------------------


  
 reached required accuracy - stopping structural energy minimisation
     LOOP+:  cpu time   29.9595: real time   30.3135
    4ORBIT:  cpu time    0.0000: real time    0.0000

 total amount of memory used by VASP MPI-rank0    64336. kBytes
=======================================================================

   base      :      30000. kBytes
   nonlr-proj:       9227. kBytes
   fftplans  :       4394. kBytes
   grid      :       4856. kBytes
   one-center:         62. kBytes
   wavefun   :      15797. kBytes
 
  
  
 General timing and accounting informations for this job:
 ========================================================
  
                  Total CPU time used (sec):    14870.340
                            User time (sec):    14868.432
                          System time (sec):        1.908
                         Elapsed time (sec):    14878.690
  
                   Maximum memory used (kb):      407044.
                   Average memory used (kb):           0.
  
                          Minor page faults:        28310
                          Major page faults:          404
                 Voluntary context switches:         5865
