       N       E                     dE             d eps       ncg     rms          rms(c)
DAV:   1     0.353826022633E+04    0.35383E+04   -0.14226E+05 16440   0.116E+03
DAV:   2     0.189720733002E+03   -0.33485E+04   -0.30654E+04 17104   0.444E+02
DAV:   3    -0.228662615675E+03   -0.41838E+03   -0.38800E+03 21512   0.129E+02
DAV:   4    -0.260955122756E+03   -0.32293E+02   -0.29293E+02 23608   0.373E+01
DAV:   5    -0.261995360079E+03   -0.10402E+01   -0.10125E+01 22592   0.568E+00    0.279E+01
RMM:   6    -0.253166492176E+03    0.88289E+01   -0.14977E+01 18294   0.730E+00    0.209E+01
RMM:   7    -0.252319969356E+03    0.84652E+00   -0.16193E+01 17611   0.765E+00    0.222E+01
RMM:   8    -0.251183897052E+03    0.11361E+01   -0.12128E+01 16677   0.871E+00    0.205E+01
RMM:   9    -0.241846835782E+03    0.93371E+01   -0.44809E+00 17415   0.401E+00    0.123E+01
RMM:  10    -0.238848482937E+03    0.29984E+01   -0.27788E+00 16366   0.457E+00    0.562E+00
RMM:  11    -0.238511884024E+03    0.33660E+00   -0.12410E+00 17908   0.220E+00    0.263E+00
RMM:  12    -0.238592297971E+03   -0.80414E-01   -0.31466E-01 18796   0.118E+00    0.233E+00
RMM:  13    -0.238586330538E+03    0.59674E-02   -0.95717E-02 17020   0.595E-01    0.148E+00
RMM:  14    -0.238565084907E+03    0.21246E-01   -0.89159E-02 16453   0.698E-01    0.110E+00
RMM:  15    -0.238550065976E+03    0.15019E-01   -0.25173E-02 18954   0.275E-01    0.589E-01
RMM:  16    -0.238553567238E+03   -0.35013E-02   -0.15402E-02 16604   0.224E-01    0.401E-01
RMM:  17    -0.238554253917E+03   -0.68668E-03   -0.70367E-03 17161   0.173E-01    0.309E-01
RMM:  18    -0.238553955255E+03    0.29866E-03   -0.36983E-03 16541   0.126E-01    0.195E-01
RMM:  19    -0.238554015323E+03   -0.60068E-04   -0.24658E-03 16852   0.102E-01    0.138E-01
RMM:  20    -0.238553941900E+03    0.73423E-04   -0.14999E-03 17247   0.783E-02    0.935E-02
RMM:  21    -0.238553804277E+03    0.13762E-03   -0.53633E-04 18529   0.409E-02    0.517E-02
RMM:  22    -0.238553800283E+03    0.39931E-05   -0.25853E-04 16868   0.316E-02    0.325E-02
RMM:  23    -0.238553935220E+03   -0.13494E-03   -0.28042E-04 16519   0.317E-02    0.295E-02
RMM:  24    -0.238554157837E+03   -0.22262E-03   -0.25810E-04 16403   0.266E-02    0.205E-02
RMM:  25    -0.238554332279E+03   -0.17444E-03   -0.12539E-04 16999   0.177E-02    0.961E-03
RMM:  26    -0.238554444786E+03   -0.11251E-03   -0.52559E-05 16746   0.112E-02    0.711E-03
RMM:  27    -0.238554607046E+03   -0.16226E-03   -0.83617E-05 16317   0.151E-02    0.432E-03
RMM:  28    -0.238554691069E+03   -0.84022E-04   -0.42287E-05 15960   0.944E-03    0.278E-03
RMM:  29    -0.238554743355E+03   -0.52287E-04   -0.27297E-05 15295   0.763E-03    0.221E-03
RMM:  30    -0.238554766219E+03   -0.22864E-04   -0.15975E-05 14092   0.556E-03    0.143E-03
RMM:  31    -0.238554771238E+03   -0.50188E-05   -0.58638E-06 11960   0.318E-03    0.124E-03
RMM:  32    -0.238554772423E+03   -0.11846E-05   -0.21136E-06 10270   0.216E-03    0.696E-04
RMM:  33    -0.238554772425E+03   -0.23865E-08   -0.11598E-06  9609   0.169E-03
   1 F= -.23855477E+03 E0= -.23854809E+03  d E =-.238555E+03
       N       E                     dE             d eps       ncg     rms          rms(c)
DAV:   1    -0.238556544176E+03   -0.17718E-02   -0.78623E-02 17272   0.542E-01    0.323E-02
RMM:   2    -0.238556673613E+03   -0.12944E-03   -0.13652E-03 16418   0.864E-02    0.262E-02
RMM:   3    -0.238556680711E+03   -0.70984E-05   -0.13121E-04 19683   0.292E-02    0.230E-02
RMM:   4    -0.238556670858E+03    0.98530E-05   -0.28054E-05 17938   0.941E-03    0.154E-02
RMM:   5    -0.238556662872E+03    0.79867E-05   -0.17190E-05 16325   0.816E-03    0.619E-03
RMM:   6    -0.238556662402E+03    0.46965E-06   -0.33992E-06 10741   0.397E-03
   2 F= -.23855666E+03 E0= -.23854996E+03  d E =-.188998E-02
       N       E                     dE             d eps       ncg     rms          rms(c)
DAV:   1    -0.238559278211E+03   -0.26153E-02   -0.70725E-01 16784   0.163E+00    0.975E-02
RMM:   2    -0.238560229257E+03   -0.95105E-03   -0.10869E-02 16431   0.251E-01    0.205E-02
RMM:   3    -0.238560324193E+03   -0.94936E-04   -0.11335E-03 21779   0.810E-02    0.742E-03
RMM:   4    -0.238560335132E+03   -0.10939E-04   -0.84071E-05 17444   0.124E-02    0.773E-03
RMM:   5    -0.238560336703E+03   -0.15712E-05   -0.90507E-06 11308   0.550E-03    0.456E-03
RMM:   6    -0.238560338596E+03   -0.18921E-05   -0.54502E-06 12298   0.431E-03    0.324E-03
RMM:   7    -0.238560338613E+03   -0.17742E-07   -0.13327E-06  9379   0.287E-03
   3 F= -.23856034E+03 E0= -.23855357E+03  d E =-.556619E-02
       N       E                     dE             d eps       ncg     rms          rms(c)
DAV:   1    -0.238554445843E+03    0.58928E-02   -0.28310E+00 16336   0.325E+00    0.196E-01
RMM:   2    -0.238558308644E+03   -0.38628E-02   -0.43495E-02 16435   0.504E-01    0.346E-02
RMM:   3    -0.238558684489E+03   -0.37585E-03   -0.45603E-03 22223   0.160E-01    0.856E-03
RMM:   4    -0.238558702971E+03   -0.18481E-04   -0.26052E-04 19846   0.201E-02    0.697E-03
RMM:   5    -0.238558705582E+03   -0.26113E-05   -0.29207E-05 12680   0.850E-03    0.408E-03
RMM:   6    -0.238558706219E+03   -0.63695E-06   -0.92016E-06 14480   0.492E-03
   4 F= -.23855871E+03 E0= -.23855180E+03  d E =-.393379E-02
       N       E                     dE             d eps       ncg     rms          rms(c)
DAV:   1    -0.238559426784E+03   -0.72120E-03   -0.11426E+00 16432   0.207E+00    0.124E-01
RMM:   2    -0.238560987774E+03   -0.15610E-02   -0.16990E-02 16428   0.316E-01    0.371E-02
RMM:   3    -0.238561124193E+03   -0.13642E-03   -0.17451E-03 22014   0.994E-02    0.144E-02
RMM:   4    -0.238561130368E+03   -0.61751E-05   -0.12052E-04 18877   0.147E-02    0.765E-03
RMM:   5    -0.238561129423E+03    0.94486E-06   -0.13766E-05 11741   0.800E-03    0.363E-03
RMM:   6    -0.238561128892E+03    0.53140E-06   -0.36791E-06 10123   0.332E-03
   5 F= -.23856113E+03 E0= -.23855431E+03  d E =-.635647E-02
       N       E                     dE             d eps       ncg     rms          rms(c)
DAV:   1    -0.238562504724E+03   -0.13753E-02   -0.10833E-01 16768   0.631E-01    0.388E-02
RMM:   2    -0.238562668823E+03   -0.16410E-03   -0.17844E-03 16437   0.101E-01    0.323E-02
RMM:   3    -0.238562679356E+03   -0.10533E-04   -0.18451E-04 21659   0.321E-02    0.328E-02
RMM:   4    -0.238562676916E+03    0.24398E-05   -0.29426E-05 17375   0.114E-02    0.259E-02
RMM:   5    -0.238562669625E+03    0.72910E-05   -0.17077E-04 16386   0.240E-02    0.264E-02
RMM:   6    -0.238562672839E+03   -0.32137E-05   -0.14819E-05 16282   0.873E-03    0.183E-02
RMM:   7    -0.238562668225E+03    0.46133E-05   -0.14620E-05 15793   0.782E-03    0.107E-02
RMM:   8    -0.238562666987E+03    0.12385E-05   -0.76043E-06 13799   0.508E-03    0.625E-03
RMM:   9    -0.238562668682E+03   -0.16950E-05   -0.20540E-06  9708   0.397E-03    0.474E-03
RMM:  10    -0.238562668457E+03    0.22493E-06   -0.10345E-06  9234   0.228E-03
   6 F= -.23856267E+03 E0= -.23855582E+03  d E =-.153957E-02
       N       E                     dE             d eps       ncg     rms          rms(c)
DAV:   1    -0.238563253534E+03   -0.58485E-03   -0.56494E-01 16336   0.144E+00    0.879E-02
RMM:   2    -0.238564009183E+03   -0.75565E-03   -0.88033E-03 16438   0.226E-01    0.931E-03
RMM:   3    -0.238564086792E+03   -0.77609E-04   -0.89570E-04 21775   0.714E-02    0.928E-03
RMM:   4    -0.238564093835E+03   -0.70425E-05   -0.64472E-05 15229   0.977E-03    0.964E-03
RMM:   5    -0.238564095506E+03   -0.16711E-05   -0.72981E-06 10848   0.457E-03    0.785E-03
RMM:   6    -0.238564096138E+03   -0.63207E-06   -0.23998E-06  9836   0.288E-03
   7 F= -.23856410E+03 E0= -.23855720E+03  d E =-.296725E-02
       N       E                     dE             d eps       ncg     rms          rms(c)
DAV:   1    -0.238564707042E+03   -0.61154E-03   -0.45897E-02 16760   0.401E-01    0.245E-02
RMM:   2    -0.238564776106E+03   -0.69063E-04   -0.66429E-04 16418   0.664E-02    0.207E-02
RMM:   3    -0.238564782392E+03   -0.62868E-05   -0.82836E-05 21694   0.208E-02    0.212E-02
RMM:   4    -0.238564768302E+03    0.14090E-04   -0.42669E-05 16386   0.173E-02    0.148E-02
RMM:   5    -0.238564770514E+03   -0.22122E-05   -0.21043E-05 17234   0.873E-03    0.148E-02
RMM:   6    -0.238564772048E+03   -0.15334E-05   -0.65088E-06 12468   0.573E-03    0.106E-02
RMM:   7    -0.238564770649E+03    0.13991E-05   -0.27656E-06 10162   0.340E-03    0.884E-03
RMM:   8    -0.238564769379E+03    0.12698E-05   -0.98413E-07  9262   0.273E-03    0.800E-03
RMM:   9    -0.238564767767E+03    0.16116E-05   -0.13288E-06  9225   0.269E-03    0.579E-03
RMM:  10    -0.238564766798E+03    0.96956E-06   -0.11193E-06  9132   0.262E-03
   8 F= -.23856477E+03 E0= -.23855786E+03  d E =-.670660E-03
       N       E                     dE             d eps       ncg     rms          rms(c)
DAV:   1    -0.238565402778E+03   -0.63501E-03   -0.41296E-01 16336   0.120E+00    0.749E-02
RMM:   2    -0.238565880675E+03   -0.47790E-03   -0.51506E-03 16433   0.191E-01    0.172E-02
RMM:   3    -0.238565929646E+03   -0.48971E-04   -0.57422E-04 22830   0.522E-02    0.322E-03
RMM:   4    -0.238565932769E+03   -0.31224E-05   -0.18808E-05 13452   0.594E-03    0.229E-03
RMM:   5    -0.238565934553E+03   -0.17847E-05   -0.25976E-06  9809   0.293E-03    0.239E-03
RMM:   6    -0.238565935472E+03   -0.91824E-06   -0.14792E-06  9690   0.233E-03
   9 F= -.23856594E+03 E0= -.23855899E+03  d E =-.183933E-02
       N       E                     dE             d eps       ncg     rms          rms(c)
DAV:   1    -0.238565959930E+03   -0.25377E-04   -0.67368E-02 16608   0.486E-01    0.309E-02
RMM:   2    -0.238566042014E+03   -0.82084E-04   -0.84792E-04 16435   0.774E-02    0.886E-03
RMM:   3    -0.238566049714E+03   -0.76994E-05   -0.98137E-05 22773   0.217E-02    0.271E-03
RMM:   4    -0.238566049647E+03    0.67095E-07   -0.30425E-06 10297   0.268E-03
  10 F= -.23856605E+03 E0= -.23855909E+03  d E =-.195351E-02
       N       E                     dE             d eps       ncg     rms          rms(c)
DAV:   1    -0.238566617939E+03   -0.56822E-03   -0.61187E-02 16632   0.457E-01    0.297E-02
RMM:   2    -0.238566693106E+03   -0.75167E-04   -0.84431E-04 16443   0.751E-02    0.226E-02
RMM:   3    -0.238566698031E+03   -0.49251E-05   -0.11902E-04 22749   0.237E-02    0.203E-02
RMM:   4    -0.238566700082E+03   -0.20514E-05   -0.40322E-05 16410   0.140E-02    0.107E-02
RMM:   5    -0.238566698025E+03    0.20569E-05   -0.39378E-06 11047   0.438E-03    0.927E-03
RMM:   6    -0.238566696209E+03    0.18164E-05   -0.27057E-06 10043   0.451E-03    0.627E-03
RMM:   7    -0.238566696195E+03    0.14097E-07   -0.19117E-06  9258   0.317E-03
  11 F= -.23856670E+03 E0= -.23855973E+03  d E =-.646548E-03
       N       E                     dE             d eps       ncg     rms          rms(c)
DAV:   1    -0.238566795979E+03   -0.99770E-04   -0.55025E-01 16320   0.137E+00    0.879E-02
RMM:   2    -0.238567432654E+03   -0.63668E-03   -0.68355E-03 16436   0.220E-01    0.110E-02
RMM:   3    -0.238567505567E+03   -0.72913E-04   -0.84105E-04 22830   0.630E-02    0.155E-02
RMM:   4    -0.238567505563E+03    0.37253E-08   -0.24449E-05 14136   0.673E-03    0.143E-02
RMM:   5    -0.238567504535E+03    0.10282E-05   -0.37757E-06 10226   0.379E-03    0.125E-02
RMM:   6    -0.238567503459E+03    0.10763E-05   -0.36092E-06 10971   0.356E-03    0.998E-03
RMM:   7    -0.238567502802E+03    0.65650E-06   -0.12918E-06  9425   0.277E-03
  12 F= -.23856750E+03 E0= -.23856052E+03  d E =-.145316E-02
       N       E                     dE             d eps       ncg     rms          rms(c)
DAV:   1    -0.238567933683E+03   -0.43022E-03   -0.77467E-02 16552   0.517E-01    0.323E-02
RMM:   2    -0.238568018154E+03   -0.84471E-04   -0.98340E-04 16409   0.807E-02    0.232E-02
RMM:   3    -0.238568024261E+03   -0.61070E-05   -0.14384E-04 22831   0.257E-02    0.254E-02
RMM:   4    -0.238568031842E+03   -0.75812E-05   -0.36306E-05 16432   0.101E-02    0.231E-02
RMM:   5    -0.238568034032E+03   -0.21898E-05   -0.12127E-05 16245   0.674E-03    0.200E-02
RMM:   6    -0.238568033334E+03    0.69849E-06   -0.30230E-06  9804   0.507E-03
  13 F= -.23856803E+03 E0= -.23856104E+03  d E =-.530532E-03
       N       E                     dE             d eps       ncg     rms          rms(c)
DAV:   1    -0.238567850261E+03    0.18377E-03   -0.69753E-01 16320   0.155E+00    0.976E-02
RMM:   2    -0.238568641956E+03   -0.79169E-03   -0.88258E-03 16421   0.250E-01    0.309E-02
RMM:   3    -0.238568726902E+03   -0.84947E-04   -0.10608E-03 22846   0.704E-02    0.446E-02
RMM:   4    -0.238568717871E+03    0.90319E-05   -0.32091E-05 18015   0.103E-02    0.386E-02
RMM:   5    -0.238568710304E+03    0.75667E-05   -0.11382E-05 16135   0.720E-03    0.332E-02
RMM:   6    -0.238568700187E+03    0.10116E-04   -0.92637E-06 16214   0.645E-03    0.275E-02
RMM:   7    -0.238568697328E+03    0.28590E-05   -0.40090E-06 11441   0.418E-03    0.238E-02
RMM:   8    -0.238568694378E+03    0.29510E-05   -0.30764E-06  9901   0.425E-03    0.206E-02
RMM:   9    -0.238568689210E+03    0.51676E-05   -0.70746E-06 15273   0.554E-03    0.149E-02
RMM:  10    -0.238568685691E+03    0.35188E-05   -0.59162E-06 14842   0.507E-03    0.954E-03
RMM:  11    -0.238568684305E+03    0.13859E-05   -0.25538E-06  9523   0.397E-03    0.620E-03
RMM:  12    -0.238568683727E+03    0.57857E-06   -0.16750E-06  9154   0.352E-03
  14 F= -.23856868E+03 E0= -.23856168E+03  d E =-.118092E-02
       N       E                     dE             d eps       ncg     rms          rms(c)
DAV:   1    -0.238568952156E+03   -0.26785E-03   -0.59208E-02 16664   0.466E-01    0.294E-02
RMM:   2    -0.238569057935E+03   -0.10578E-03   -0.99701E-04 16397   0.748E-02    0.312E-02
RMM:   3    -0.238569053924E+03    0.40110E-05   -0.12810E-04 19964   0.274E-02    0.286E-02
RMM:   4    -0.238569048877E+03    0.50468E-05   -0.95058E-05 16411   0.176E-02    0.310E-02
RMM:   5    -0.238569041100E+03    0.77769E-05   -0.82985E-06 15149   0.809E-03    0.258E-02
RMM:   6    -0.238569046519E+03   -0.54186E-05   -0.56164E-06 13194   0.449E-03    0.217E-02
RMM:   7    -0.238569046336E+03    0.18342E-06   -0.12388E-05 15967   0.651E-03    0.158E-02
RMM:   8    -0.238569043072E+03    0.32633E-05   -0.65108E-06 14087   0.543E-03    0.109E-02
RMM:   9    -0.238569041463E+03    0.16097E-05   -0.44849E-06 11912   0.447E-03    0.717E-03
RMM:  10    -0.238569039701E+03    0.17613E-05   -0.26698E-06  9549   0.392E-03    0.423E-03
RMM:  11    -0.238569039168E+03    0.53361E-06   -0.11935E-06  9193   0.322E-03
  15 F= -.23856904E+03 E0= -.23856204E+03  d E =-.355441E-03
