       N       E                     dE             d eps       ncg     rms          rms(c)
DAV:   1     0.348655056830E+04    0.34866E+04   -0.14382E+05  4800   0.117E+03
DAV:   2     0.187889200875E+03   -0.32987E+04   -0.30479E+04  4960   0.444E+02
DAV:   3    -0.251127487895E+03   -0.43902E+03   -0.41266E+03  6864   0.129E+02
DAV:   4    -0.281775765042E+03   -0.30648E+02   -0.28209E+02  6848   0.362E+01
DAV:   5    -0.282702826250E+03   -0.92706E+00   -0.91434E+00  6848   0.543E+00    0.276E+01
RMM:   6    -0.274471846407E+03    0.82310E+01   -0.12519E+01  5291   0.675E+00    0.231E+01
RMM:   7    -0.291549789885E+03   -0.17078E+02   -0.18320E+01  5390   0.723E+00    0.313E+01
RMM:   8    -0.273892333078E+03    0.17657E+02   -0.13334E+01  5279   0.650E+00    0.238E+01
RMM:   9    -0.259260676487E+03    0.14632E+02   -0.19619E+01  4874   0.111E+01    0.124E+01
RMM:  10    -0.257905104763E+03    0.13556E+01   -0.37235E+00  5794   0.345E+00    0.754E+00
RMM:  11    -0.257572645432E+03    0.33246E+00   -0.12131E+00  5055   0.233E+00    0.357E+00
RMM:  12    -0.257571862282E+03    0.78315E-03   -0.72180E-01  5129   0.182E+00    0.264E+00
RMM:  13    -0.257547116950E+03    0.24745E-01   -0.21168E-01  5536   0.924E-01    0.191E+00
RMM:  14    -0.257527234802E+03    0.19882E-01   -0.71851E-02  4871   0.537E-01    0.115E+00
RMM:  15    -0.257520796757E+03    0.64380E-02   -0.62540E-02  4832   0.583E-01    0.692E-01
RMM:  16    -0.257521508209E+03   -0.71145E-03   -0.24345E-02  5181   0.329E-01    0.492E-01
RMM:  17    -0.257525031416E+03   -0.35232E-02   -0.84836E-03  5034   0.166E-01    0.345E-01
RMM:  18    -0.257526510541E+03   -0.14791E-02   -0.71120E-03  4845   0.169E-01    0.278E-01
RMM:  19    -0.257525085559E+03    0.14250E-02   -0.38201E-03  4809   0.130E-01    0.178E-01
RMM:  20    -0.257524608155E+03    0.47740E-03   -0.20037E-03  4747   0.932E-02    0.117E-01
RMM:  21    -0.257524408837E+03    0.19932E-03   -0.14155E-03  4393   0.729E-02    0.896E-02
RMM:  22    -0.257524048131E+03    0.36071E-03   -0.74464E-04  3607   0.556E-02    0.448E-02
RMM:  23    -0.257523840671E+03    0.20746E-03   -0.41443E-04  3203   0.419E-02    0.310E-02
RMM:  24    -0.257523796873E+03    0.43798E-04   -0.38417E-04  3167   0.394E-02
   1 F= -.25752380E+03 E0= -.25753444E+03  d E =0.425842E-01
       N       E                     dE             d eps       ncg     rms          rms(c)
DAV:   1    -0.257517793788E+03    0.60469E-02   -0.54809E-01  5072   0.123E+00    0.127E-01
RMM:   2    -0.257518324365E+03   -0.53058E-03   -0.57590E-03  3970   0.118E-01    0.113E-01
RMM:   3    -0.257518251211E+03    0.73154E-04   -0.69796E-04  3297   0.494E-02
   2 F= -.25751825E+03 E0= -.25752895E+03  d E =0.427776E-01
       N       E                     dE             d eps       ncg     rms          rms(c)
DAV:   1    -0.257517513723E+03    0.81064E-03   -0.22188E+00  4960   0.244E+00    0.256E-01
RMM:   2    -0.257518110604E+03   -0.59688E-03   -0.21439E-02  4546   0.240E-01    0.331E-02
RMM:   3    -0.257518181275E+03   -0.70671E-04   -0.10067E-03  3435   0.671E-02    0.237E-02
RMM:   4    -0.257518267021E+03   -0.85746E-04   -0.28792E-04  3001   0.358E-02
   3 F= -.25751827E+03 E0= -.25752894E+03  d E =0.427042E-01
       N       E                     dE             d eps       ncg     rms          rms(c)
DAV:   1    -0.257518630587E+03   -0.44931E-03   -0.10987E+00  4912   0.178E+00    0.178E-01
RMM:   2    -0.257519399259E+03   -0.76867E-03   -0.10757E-02  4149   0.165E-01    0.106E-01
RMM:   3    -0.257519230008E+03    0.16925E-03   -0.62709E-04  3120   0.522E-02    0.698E-02
RMM:   4    -0.257519253131E+03   -0.23123E-04   -0.84956E-04  3436   0.456E-02
   4 F= -.25751925E+03 E0= -.25752993E+03  d E =0.426881E-01
       N       E                     dE             d eps       ncg     rms          rms(c)
DAV:   1    -0.257518524325E+03    0.70568E-03   -0.21790E+00  4864   0.253E+00    0.245E-01
RMM:   2    -0.257519342468E+03   -0.81814E-03   -0.23352E-02  4520   0.247E-01    0.313E-02
RMM:   3    -0.257519398687E+03   -0.56219E-04   -0.12268E-03  3416   0.766E-02    0.203E-02
RMM:   4    -0.257519436970E+03   -0.38283E-04   -0.26704E-04  2831   0.294E-02
   5 F= -.25751944E+03 E0= -.25753011E+03  d E =0.426751E-01
       N       E                     dE             d eps       ncg     rms          rms(c)
DAV:   1    -0.257518409054E+03    0.98963E-03   -0.10886E+00  4800   0.185E+00    0.172E-01
RMM:   2    -0.257519343418E+03   -0.93436E-03   -0.11804E-02  4329   0.183E-01    0.109E-01
RMM:   3    -0.257519099260E+03    0.24416E-03   -0.10403E-03  3400   0.642E-02    0.495E-02
RMM:   4    -0.257518997966E+03    0.10129E-03   -0.47117E-04  3125   0.373E-02    0.281E-02
RMM:   5    -0.257519005422E+03   -0.74561E-05   -0.87014E-05  2620   0.249E-02
   6 F= -.25751901E+03 E0= -.25752968E+03  d E =0.427011E-01
       N       E                     dE             d eps       ncg     rms          rms(c)
DAV:   1    -0.257518037190E+03    0.96078E-03   -0.21799E+00  4800   0.261E+00    0.243E-01
RMM:   2    -0.257519173403E+03   -0.11362E-02   -0.25858E-02  4462   0.266E-01    0.344E-02
RMM:   3    -0.257519243859E+03   -0.70456E-04   -0.13515E-03  3476   0.857E-02    0.218E-02
RMM:   4    -0.257519243009E+03    0.85001E-06   -0.29963E-04  2920   0.305E-02
   7 F= -.25751924E+03 E0= -.25752991E+03  d E =0.426685E-01
       N       E                     dE             d eps       ncg     rms          rms(c)
DAV:   1    -0.257517281457E+03    0.19624E-02   -0.11112E+00  4800   0.188E+00    0.179E-01
RMM:   2    -0.257518122582E+03   -0.84113E-03   -0.13482E-02  4295   0.186E-01    0.120E-01
RMM:   3    -0.257517985682E+03    0.13690E-03   -0.90290E-04  3243   0.581E-02    0.585E-02
RMM:   4    -0.257517925306E+03    0.60376E-04   -0.36575E-04  2981   0.343E-02
   8 F= -.25751793E+03 E0= -.25752860E+03  d E =0.426867E-01
       N       E                     dE             d eps       ncg     rms          rms(c)
DAV:   1    -0.257518408050E+03   -0.42237E-03   -0.22269E+00  4800   0.251E+00    0.270E-01
RMM:   2    -0.257518680422E+03   -0.27237E-03   -0.18114E-02  4455   0.222E-01    0.246E-02
RMM:   3    -0.257518724420E+03   -0.43998E-04   -0.80672E-04  3257   0.630E-02
   9 F= -.25751872E+03 E0= -.25752939E+03  d E =0.426776E-01
       N       E                     dE             d eps       ncg     rms          rms(c)
DAV:   1    -0.257518898545E+03   -0.21812E-03   -0.11010E+00  4800   0.177E+00    0.186E-01
RMM:   2    -0.257519484876E+03   -0.58633E-03   -0.10194E-02  4301   0.164E-01    0.114E-01
RMM:   3    -0.257519454231E+03    0.30644E-04   -0.81054E-04  3373   0.594E-02
  10 F= -.25751945E+03 E0= -.25753013E+03  d E =0.426972E-01
       N       E                     dE             d eps       ncg     rms          rms(c)
DAV:   1    -0.257517815443E+03    0.16694E-02   -0.22261E+00  4864   0.255E+00    0.246E-01
RMM:   2    -0.257518605150E+03   -0.78971E-03   -0.24223E-02  4701   0.268E-01    0.584E-02
RMM:   3    -0.257518660723E+03   -0.55573E-04   -0.12992E-03  3587   0.761E-02    0.494E-02
RMM:   4    -0.257518645447E+03    0.15275E-04   -0.30661E-04  2982   0.362E-02
  11 F= -.25751865E+03 E0= -.25752933E+03  d E =0.427300E-01
       N       E                     dE             d eps       ncg     rms          rms(c)
DAV:   1    -0.257518995965E+03   -0.33524E-03   -0.10968E+00  4816   0.185E+00    0.184E-01
RMM:   2    -0.257519819226E+03   -0.82326E-03   -0.10205E-02  4469   0.179E-01    0.109E-01
RMM:   3    -0.257519613198E+03    0.20603E-03   -0.76447E-04  3315   0.570E-02    0.687E-02
RMM:   4    -0.257519475926E+03    0.13727E-03   -0.57706E-04  3191   0.399E-02    0.286E-02
RMM:   5    -0.257519511101E+03   -0.35175E-04   -0.64698E-05  2606   0.238E-02
  12 F= -.25751951E+03 E0= -.25753019E+03  d E =0.427118E-01
       N       E                     dE             d eps       ncg     rms          rms(c)
DAV:   1    -0.257518967962E+03    0.50796E-03   -0.21790E+00  4800   0.267E+00    0.255E-01
RMM:   2    -0.257519754396E+03   -0.78643E-03   -0.23564E-02  4612   0.262E-01    0.351E-02
RMM:   3    -0.257519784825E+03   -0.30428E-04   -0.12176E-03  3517   0.821E-02    0.263E-02
RMM:   4    -0.257519788390E+03   -0.35655E-05   -0.29042E-04  2903   0.314E-02
  13 F= -.25751979E+03 E0= -.25753046E+03  d E =0.426818E-01
       N       E                     dE             d eps       ncg     rms          rms(c)
DAV:   1    -0.257518013562E+03    0.17713E-02   -0.10565E+00  4800   0.188E+00    0.177E-01
RMM:   2    -0.257518808929E+03   -0.79537E-03   -0.11965E-02  4490   0.186E-01    0.121E-01
RMM:   3    -0.257518525030E+03    0.28390E-03   -0.92122E-04  3363   0.600E-02    0.538E-02
RMM:   4    -0.257518528720E+03   -0.36899E-05   -0.38885E-04  3066   0.391E-02
  14 F= -.25751853E+03 E0= -.25752920E+03  d E =0.426723E-01
       N       E                     dE             d eps       ncg     rms          rms(c)
DAV:   1    -0.257518356390E+03    0.16864E-03   -0.22182E+00  4800   0.265E+00    0.274E-01
RMM:   2    -0.257518626045E+03   -0.26966E-03   -0.20540E-02  4657   0.243E-01    0.287E-02
RMM:   3    -0.257518684171E+03   -0.58126E-04   -0.94380E-04  3380   0.731E-02
  15 F= -.25751868E+03 E0= -.25752936E+03  d E =0.426979E-01
       N       E                     dE             d eps       ncg     rms          rms(c)
DAV:   1    -0.257518696895E+03   -0.70850E-04   -0.11206E+00  4800   0.187E+00    0.201E-01
RMM:   2    -0.257519011246E+03   -0.31435E-03   -0.88702E-03  4477   0.167E-01    0.121E-01
RMM:   3    -0.257518792180E+03    0.21907E-03   -0.12606E-03  3588   0.641E-02    0.504E-02
RMM:   4    -0.257518707497E+03    0.84683E-04   -0.26729E-04  2939   0.390E-02
  16 F= -.25751871E+03 E0= -.25752940E+03  d E =0.427550E-01
       N       E                     dE             d eps       ncg     rms          rms(c)
DAV:   1    -0.257518401300E+03    0.39088E-03   -0.22205E+00  4800   0.264E+00    0.277E-01
RMM:   2    -0.257518567158E+03   -0.16586E-03   -0.21926E-02  4678   0.254E-01    0.304E-02
RMM:   3    -0.257518637083E+03   -0.69926E-04   -0.10366E-03  3412   0.769E-02    0.192E-02
RMM:   4    -0.257518650870E+03   -0.13787E-04   -0.24263E-04  2835   0.305E-02
  17 F= -.25751865E+03 E0= -.25752931E+03  d E =0.426506E-01
       N       E                     dE             d eps       ncg     rms          rms(c)
DAV:   1    -0.257520045981E+03   -0.14089E-02   -0.10832E+00  4800   0.192E+00    0.185E-01
RMM:   2    -0.257520496765E+03   -0.45078E-03   -0.11999E-02  4586   0.196E-01    0.118E-01
RMM:   3    -0.257520208241E+03    0.28852E-03   -0.13811E-03  3705   0.737E-02    0.802E-02
RMM:   4    -0.257520117979E+03    0.90262E-04   -0.65321E-04  3291   0.461E-02
  18 F= -.25752012E+03 E0= -.25753078E+03  d E =0.426679E-01
       N       E                     dE             d eps       ncg     rms          rms(c)
DAV:   1    -0.257519356268E+03    0.85197E-03   -0.21613E+00  4800   0.271E+00    0.269E-01
RMM:   2    -0.257519853900E+03   -0.49763E-03   -0.25390E-02  4710   0.271E-01    0.460E-02
RMM:   3    -0.257519969985E+03   -0.11608E-03   -0.14754E-03  3647   0.936E-02    0.299E-02
RMM:   4    -0.257519971652E+03   -0.16675E-05   -0.37129E-04  3036   0.358E-02
  19 F= -.25751997E+03 E0= -.25753065E+03  d E =0.426979E-01
       N       E                     dE             d eps       ncg     rms          rms(c)
DAV:   1    -0.257518080459E+03    0.18895E-02   -0.11365E+00  4800   0.201E+00    0.190E-01
RMM:   2    -0.257518787743E+03   -0.70728E-03   -0.14979E-02  4645   0.220E-01    0.113E-01
RMM:   3    -0.257518828269E+03   -0.40526E-04   -0.11800E-03  3617   0.781E-02    0.598E-02
RMM:   4    -0.257518743890E+03    0.84379E-04   -0.34881E-04  3035   0.378E-02
  20 F= -.25751874E+03 E0= -.25752944E+03  d E =0.427766E-01
       N       E                     dE             d eps       ncg     rms          rms(c)
DAV:   1    -0.257518272398E+03    0.55587E-03   -0.21841E+00  4800   0.276E+00    0.265E-01
RMM:   2    -0.257519071392E+03   -0.79899E-03   -0.21338E-02  4711   0.280E-01    0.332E-02
RMM:   3    -0.257519218681E+03   -0.14729E-03   -0.10820E-03  3598   0.832E-02    0.292E-02
RMM:   4    -0.257519222222E+03   -0.35413E-05   -0.25025E-04  2908   0.310E-02
  21 F= -.25751922E+03 E0= -.25752988E+03  d E =0.426274E-01
       N       E                     dE             d eps       ncg     rms          rms(c)
DAV:   1    -0.257518791163E+03    0.42752E-03   -0.10861E+00  4800   0.196E+00    0.184E-01
RMM:   2    -0.257519464816E+03   -0.67365E-03   -0.10983E-02  4594   0.203E-01    0.106E-01
RMM:   3    -0.257519352757E+03    0.11206E-03   -0.11763E-03  3726   0.746E-02    0.787E-02
RMM:   4    -0.257519286600E+03    0.66157E-04   -0.56726E-04  3182   0.411E-02
  22 F= -.25751929E+03 E0= -.25752995E+03  d E =0.426543E-01
       N       E                     dE             d eps       ncg     rms          rms(c)
DAV:   1    -0.257519002365E+03    0.35039E-03   -0.21743E+00  4800   0.272E+00    0.249E-01
RMM:   2    -0.257520096254E+03   -0.10939E-02   -0.24478E-02  4729   0.292E-01    0.251E-02
RMM:   3    -0.257520231399E+03   -0.13514E-03   -0.14110E-03  3659   0.975E-02    0.180E-02
RMM:   4    -0.257520260655E+03   -0.29255E-04   -0.35016E-04  2971   0.317E-02
  23 F= -.25752026E+03 E0= -.25753094E+03  d E =0.427028E-01
       N       E                     dE             d eps       ncg     rms          rms(c)
DAV:   1    -0.257521007819E+03   -0.77642E-03   -0.10387E+00  4800   0.192E+00    0.191E-01
RMM:   2    -0.257521559215E+03   -0.55140E-03   -0.12059E-02  4714   0.220E-01    0.113E-01
RMM:   3    -0.257521541530E+03    0.17686E-04   -0.11729E-03  3728   0.770E-02    0.655E-02
RMM:   4    -0.257521406089E+03    0.13544E-03   -0.52926E-04  3260   0.461E-02    0.292E-02
RMM:   5    -0.257521375812E+03    0.30277E-04   -0.12376E-04  2722   0.258E-02
  24 F= -.25752138E+03 E0= -.25753208E+03  d E =0.428156E-01
       N       E                     dE             d eps       ncg     rms          rms(c)
DAV:   1    -0.257521212352E+03    0.19374E-03   -0.19951E+00  4800   0.262E+00    0.294E-01
RMM:   2    -0.257521165215E+03    0.47137E-04   -0.22621E-02  4782   0.322E-01    0.320E-02
RMM:   3    -0.257521320533E+03   -0.15532E-03   -0.17080E-03  4182   0.959E-02    0.161E-02
RMM:   4    -0.257521346105E+03   -0.25573E-04   -0.21885E-04  2885   0.291E-02
  25 F= -.25752135E+03 E0= -.25753199E+03  d E =0.425785E-01
       N       E                     dE             d eps       ncg     rms          rms(c)
DAV:   1    -0.257517983251E+03    0.33373E-02   -0.10605E+00  4800   0.195E+00    0.192E-01
RMM:   2    -0.257518700433E+03   -0.71718E-03   -0.12636E-02  4671   0.218E-01    0.123E-01
RMM:   3    -0.257518547459E+03    0.15297E-03   -0.89716E-04  3480   0.699E-02    0.711E-02
RMM:   4    -0.257518480694E+03    0.66765E-04   -0.53037E-04  3164   0.416E-02
  26 F= -.25751848E+03 E0= -.25752915E+03  d E =0.426695E-01
       N       E                     dE             d eps       ncg     rms          rms(c)
DAV:   1    -0.257518026092E+03    0.52137E-03   -0.22265E+00  4800   0.265E+00    0.274E-01
RMM:   2    -0.257518229056E+03   -0.20296E-03   -0.19509E-02  4695   0.246E-01    0.326E-02
RMM:   3    -0.257518279085E+03   -0.50028E-04   -0.86966E-04  3352   0.701E-02
  27 F= -.25751828E+03 E0= -.25752896E+03  d E =0.427049E-01
       N       E                     dE             d eps       ncg     rms          rms(c)
DAV:   1    -0.257518729094E+03   -0.50004E-03   -0.11049E+00  4816   0.188E+00    0.198E-01
RMM:   2    -0.257519038432E+03   -0.30934E-03   -0.10600E-02  4593   0.182E-01    0.117E-01
RMM:   3    -0.257518895330E+03    0.14310E-03   -0.90271E-04  3414   0.624E-02    0.715E-02
RMM:   4    -0.257518815012E+03    0.80318E-04   -0.46577E-04  3134   0.439E-02
  28 F= -.25751882E+03 E0= -.25752949E+03  d E =0.427011E-01
       N       E                     dE             d eps       ncg     rms          rms(c)
DAV:   1    -0.257518773523E+03    0.12181E-03   -0.21909E+00  4800   0.268E+00    0.269E-01
RMM:   2    -0.257519296402E+03   -0.52288E-03   -0.23522E-02  4731   0.279E-01    0.424E-02
RMM:   3    -0.257519360991E+03   -0.64589E-04   -0.13311E-03  3661   0.883E-02    0.244E-02
RMM:   4    -0.257519380186E+03   -0.19195E-04   -0.31289E-04  2970   0.347E-02
  29 F= -.25751938E+03 E0= -.25753006E+03  d E =0.427015E-01
       N       E                     dE             d eps       ncg     rms          rms(c)
DAV:   1    -0.257520208433E+03   -0.84744E-03   -0.10970E+00  4832   0.189E+00    0.199E-01
RMM:   2    -0.257520539787E+03   -0.33135E-03   -0.11056E-02  4596   0.189E-01    0.114E-01
RMM:   3    -0.257520449661E+03    0.90127E-04   -0.12097E-03  3617   0.694E-02    0.743E-02
RMM:   4    -0.257520342076E+03    0.10758E-03   -0.61307E-04  3257   0.496E-02    0.297E-02
RMM:   5    -0.257520309362E+03    0.32714E-04   -0.16761E-04  2791   0.306E-02
  30 F= -.25752031E+03 E0= -.25753099E+03  d E =0.427229E-01
       N       E                     dE             d eps       ncg     rms          rms(c)
DAV:   1    -0.257519287055E+03    0.10550E-02   -0.21627E+00  4800   0.273E+00    0.270E-01
RMM:   2    -0.257519655267E+03   -0.36821E-03   -0.24396E-02  4705   0.271E-01    0.337E-02
RMM:   3    -0.257519727814E+03   -0.72547E-04   -0.14100E-03  3658   0.101E-01    0.225E-02
RMM:   4    -0.257519728659E+03   -0.84512E-06   -0.32139E-04  2995   0.334E-02
  31 F= -.25751973E+03 E0= -.25753039E+03  d E =0.426630E-01
       N       E                     dE             d eps       ncg     rms          rms(c)
DAV:   1    -0.257517994342E+03    0.17335E-02   -0.10543E+00  4800   0.189E+00    0.176E-01
RMM:   2    -0.257518728277E+03   -0.73394E-03   -0.12291E-02  4470   0.184E-01    0.117E-01
RMM:   3    -0.257518498775E+03    0.22950E-03   -0.81573E-04  3295   0.612E-02    0.642E-02
RMM:   4    -0.257518510685E+03   -0.11910E-04   -0.44378E-04  3127   0.419E-02
  32 F= -.25751851E+03 E0= -.25752918E+03  d E =0.426675E-01
       N       E                     dE             d eps       ncg     rms          rms(c)
DAV:   1    -0.257518351988E+03    0.14679E-03   -0.22144E+00  4800   0.250E+00    0.260E-01
RMM:   2    -0.257518909203E+03   -0.55721E-03   -0.19569E-02  4519   0.230E-01    0.306E-02
RMM:   3    -0.257518934569E+03   -0.25367E-04   -0.91318E-04  3284   0.667E-02
  33 F= -.25751893E+03 E0= -.25752961E+03  d E =0.427202E-01
       N       E                     dE             d eps       ncg     rms          rms(c)
DAV:   1    -0.257518623771E+03    0.28543E-03   -0.11117E+00  4800   0.179E+00    0.193E-01
RMM:   2    -0.257519061229E+03   -0.43746E-03   -0.90154E-03  4287   0.161E-01    0.116E-01
RMM:   3    -0.257518905756E+03    0.15547E-03   -0.12292E-03  3611   0.666E-02    0.540E-02
RMM:   4    -0.257518754209E+03    0.15155E-03   -0.53522E-04  3259   0.464E-02    0.284E-02
RMM:   5    -0.257518700037E+03    0.54173E-04   -0.21637E-04  2906   0.290E-02
  34 F= -.25751870E+03 E0= -.25752938E+03  d E =0.427113E-01
       N       E                     dE             d eps       ncg     rms          rms(c)
DAV:   1    -0.257518014603E+03    0.73961E-03   -0.22207E+00  4800   0.258E+00    0.270E-01
RMM:   2    -0.257518382077E+03   -0.36747E-03   -0.20588E-02  4531   0.238E-01    0.262E-02
RMM:   3    -0.257518451194E+03   -0.69117E-04   -0.10395E-03  3283   0.717E-02    0.159E-02
RMM:   4    -0.257518460322E+03   -0.91280E-05   -0.19363E-04  2742   0.281E-02
  35 F= -.25751846E+03 E0= -.25752913E+03  d E =0.426756E-01
       N       E                     dE             d eps       ncg     rms          rms(c)
DAV:   1    -0.257519818044E+03   -0.13668E-02   -0.10954E+00  4800   0.187E+00    0.181E-01
RMM:   2    -0.257520222442E+03   -0.40440E-03   -0.11429E-02  4476   0.183E-01    0.107E-01
RMM:   3    -0.257519929762E+03    0.29268E-03   -0.11767E-03  3616   0.667E-02    0.692E-02
RMM:   4    -0.257519988582E+03   -0.58821E-04   -0.48525E-04  3160   0.409E-02
  36 F= -.25751999E+03 E0= -.25753067E+03  d E =0.427326E-01
       N       E                     dE             d eps       ncg     rms          rms(c)
DAV:   1    -0.257518444712E+03    0.14851E-02   -0.21804E+00  4800   0.269E+00    0.252E-01
RMM:   2    -0.257519224320E+03   -0.77961E-03   -0.24472E-02  4661   0.268E-01    0.414E-02
RMM:   3    -0.257519264217E+03   -0.39897E-04   -0.13181E-03  3556   0.832E-02    0.242E-02
RMM:   4    -0.257519284393E+03   -0.20177E-04   -0.35365E-04  3008   0.366E-02
  37 F= -.25751928E+03 E0= -.25752995E+03  d E =0.426794E-01
       N       E                     dE             d eps       ncg     rms          rms(c)
DAV:   1    -0.257520869424E+03   -0.16052E-02   -0.63531E-01  4800   0.143E+00    0.184E-01
RMM:   2    -0.257521016021E+03   -0.14660E-03   -0.91196E-03  4413   0.160E-01    0.976E-02
RMM:   3    -0.257520850880E+03    0.16514E-03   -0.98336E-04  3414   0.575E-02    0.578E-02
RMM:   4    -0.257520896081E+03   -0.45200E-04   -0.56819E-04  3312   0.471E-02
  38 F= -.25752090E+03 E0= -.25753156E+03  d E =0.426512E-01
       N       E                     dE             d eps       ncg     rms          rms(c)
DAV:   1    -0.257522575544E+03   -0.17247E-02   -0.37794E-01  4864   0.799E-01    0.287E-01
RMM:   2    -0.257521329389E+03    0.12462E-02   -0.12935E-02  4320   0.152E-01    0.307E-02
RMM:   3    -0.257521429639E+03   -0.10025E-03   -0.68878E-04  3265   0.540E-02    0.226E-02
RMM:   4    -0.257521406267E+03    0.23372E-04   -0.11910E-04  2669   0.261E-02
  39 F= -.25752141E+03 E0= -.25753207E+03  d E =0.426672E-01
       N       E                     dE             d eps       ncg     rms          rms(c)
DAV:   1    -0.257524043247E+03   -0.26136E-02   -0.18337E-01  4976   0.562E-01    0.194E-01
RMM:   2    -0.257523560213E+03    0.48303E-03   -0.44888E-03  3910   0.963E-02    0.704E-02
RMM:   3    -0.257523519395E+03    0.40818E-04   -0.95555E-04  3465   0.513E-02
  40 F= -.25752352E+03 E0= -.25753419E+03  d E =0.426695E-01
       N       E                     dE             d eps       ncg     rms          rms(c)
DAV:   1    -0.257523331158E+03    0.22906E-03   -0.33715E-01  4800   0.761E-01    0.180E-01
RMM:   2    -0.257523397575E+03   -0.66417E-04   -0.39810E-03  3832   0.916E-02    0.338E-02
RMM:   3    -0.257523391787E+03    0.57874E-05   -0.20946E-04  2816   0.376E-02
  41 F= -.25752339E+03 E0= -.25753407E+03  d E =0.427081E-01
       N       E                     dE             d eps       ncg     rms          rms(c)
DAV:   1    -0.257523739910E+03   -0.34234E-03   -0.16835E-01  4800   0.540E-01    0.132E-01
RMM:   2    -0.257523723432E+03    0.16478E-04   -0.15867E-03  3395   0.598E-02    0.596E-02
RMM:   3    -0.257523720213E+03    0.32191E-05   -0.20514E-04  2813   0.307E-02
  42 F= -.25752372E+03 E0= -.25753439E+03  d E =0.426676E-01
       N       E                     dE             d eps       ncg     rms          rms(c)
DAV:   1    -0.257523271046E+03    0.45239E-03   -0.33512E-01  4800   0.761E-01    0.170E-01
RMM:   2    -0.257523387276E+03   -0.11623E-03   -0.27051E-03  3656   0.800E-02    0.223E-02
RMM:   3    -0.257523392063E+03   -0.47878E-05   -0.14373E-04  2733   0.296E-02
  43 F= -.25752339E+03 E0= -.25753407E+03  d E =0.426936E-01
       N       E                     dE             d eps       ncg     rms          rms(c)
DAV:   1    -0.257522430671E+03    0.95660E-03   -0.16858E-01  4848   0.635E-01    0.131E-01
RMM:   2    -0.257522568232E+03   -0.13756E-03   -0.20298E-03  3603   0.748E-02    0.740E-02
RMM:   3    -0.257522552763E+03    0.15469E-04   -0.26104E-04  2897   0.362E-02
  44 F= -.25752255E+03 E0= -.25753322E+03  d E =0.426770E-01
       N       E                     dE             d eps       ncg     rms          rms(c)
DAV:   1    -0.257523218366E+03   -0.65013E-03   -0.34633E-01  4816   0.874E-01    0.212E-01
RMM:   2    -0.257522884282E+03    0.33408E-03   -0.52535E-03  4174   0.112E-01    0.306E-02
RMM:   3    -0.257522912335E+03   -0.28053E-04   -0.33203E-04  3010   0.373E-02
  45 F= -.25752291E+03 E0= -.25753359E+03  d E =0.426946E-01
       N       E                     dE             d eps       ncg     rms          rms(c)
DAV:   1    -0.257522223898E+03    0.66038E-03   -0.16567E-01  4800   0.612E-01    0.115E-01
RMM:   2    -0.257522271470E+03   -0.47572E-04   -0.11798E-03  3410   0.583E-02    0.709E-02
RMM:   3    -0.257522318207E+03   -0.46737E-04   -0.25081E-04  2932   0.338E-02
  46 F= -.25752232E+03 E0= -.25753300E+03  d E =0.427097E-01
       N       E                     dE             d eps       ncg     rms          rms(c)
DAV:   1    -0.257522811659E+03   -0.54019E-03   -0.35680E-01  4848   0.896E-01    0.238E-01
RMM:   2    -0.257522266410E+03    0.54525E-03   -0.65320E-03  4109   0.122E-01    0.326E-02
RMM:   3    -0.257522271878E+03   -0.54677E-05   -0.40396E-04  3005   0.430E-02
  47 F= -.25752227E+03 E0= -.25753294E+03  d E =0.426671E-01
       N       E                     dE             d eps       ncg     rms          rms(c)
DAV:   1    -0.257523824294E+03   -0.15579E-02   -0.18276E-01  4960   0.638E-01    0.186E-01
RMM:   2    -0.257523283919E+03    0.54038E-03   -0.43171E-03  3987   0.997E-02    0.636E-02
RMM:   3    -0.257523341453E+03   -0.57534E-04   -0.59241E-04  3205   0.409E-02
  48 F= -.25752334E+03 E0= -.25753401E+03  d E =0.426781E-01
       N       E                     dE             d eps       ncg     rms          rms(c)
DAV:   1    -0.257522964671E+03    0.31925E-03   -0.34434E-01  4800   0.876E-01    0.201E-01
RMM:   2    -0.257522793628E+03    0.17104E-03   -0.46704E-03  4074   0.104E-01    0.244E-02
RMM:   3    -0.257522814707E+03   -0.21079E-04   -0.30665E-04  2964   0.376E-02
  49 F= -.25752281E+03 E0= -.25753349E+03  d E =0.426986E-01
       N       E                     dE             d eps       ncg     rms          rms(c)
DAV:   1    -0.257523420043E+03   -0.62641E-03   -0.16824E-01  4944   0.641E-01    0.131E-01
RMM:   2    -0.257523435441E+03   -0.15399E-04   -0.17045E-03  3534   0.665E-02    0.610E-02
RMM:   3    -0.257523398825E+03    0.36617E-04   -0.30715E-04  3007   0.360E-02
  50 F= -.25752340E+03 E0= -.25753406E+03  d E =0.426622E-01
       N       E                     dE             d eps       ncg     rms          rms(c)
DAV:   1    -0.257523485536E+03   -0.50095E-04   -0.33163E-01  4848   0.865E-01    0.169E-01
RMM:   2    -0.257523643804E+03   -0.15827E-03   -0.26998E-03  3819   0.853E-02    0.186E-02
RMM:   3    -0.257523650881E+03   -0.70767E-05   -0.13316E-04  2723   0.297E-02
  51 F= -.25752365E+03 E0= -.25753433E+03  d E =0.427153E-01
       N       E                     dE             d eps       ncg     rms          rms(c)
DAV:   1    -0.257521489165E+03    0.21546E-02   -0.17671E-01  4960   0.630E-01    0.178E-01
RMM:   2    -0.257521189282E+03    0.29988E-03   -0.31290E-03  3990   0.950E-02    0.892E-02
RMM:   3    -0.257521101138E+03    0.88144E-04   -0.82597E-04  3349   0.474E-02
  52 F= -.25752110E+03 E0= -.25753177E+03  d E =0.426864E-01
       N       E                     dE             d eps       ncg     rms          rms(c)
DAV:   1    -0.257522825966E+03   -0.16367E-02   -0.37194E-01  4800   0.921E-01    0.282E-01
RMM:   2    -0.257521577228E+03    0.12487E-02   -0.11213E-02  4502   0.161E-01    0.360E-02
RMM:   3    -0.257521639472E+03   -0.62244E-04   -0.75028E-04  3279   0.618E-02
  53 F= -.25752164E+03 E0= -.25753232E+03  d E =0.427082E-01
       N       E                     dE             d eps       ncg     rms          rms(c)
DAV:   1    -0.257523587563E+03   -0.20103E-02   -0.17009E-01  4848   0.620E-01    0.140E-01
RMM:   2    -0.257523500061E+03    0.87502E-04   -0.20568E-03  3707   0.732E-02    0.608E-02
RMM:   3    -0.257523501207E+03   -0.11458E-05   -0.19226E-04  2810   0.350E-02
  54 F= -.25752350E+03 E0= -.25753418E+03  d E =0.427032E-01
       N       E                     dE             d eps       ncg     rms          rms(c)
DAV:   1    -0.257522991788E+03    0.50827E-03   -0.33351E-01  4992   0.867E-01    0.187E-01
RMM:   2    -0.257522953412E+03    0.38376E-04   -0.34620E-03  3986   0.960E-02    0.236E-02
RMM:   3    -0.257522950639E+03    0.27734E-05   -0.19175E-04  2790   0.349E-02
  55 F= -.25752295E+03 E0= -.25753362E+03  d E =0.426667E-01
       N       E                     dE             d eps       ncg     rms          rms(c)
DAV:   1    -0.257521311177E+03    0.16422E-02   -0.17487E-01  4848   0.704E-01    0.171E-01
RMM:   2    -0.257520963703E+03    0.34747E-03   -0.36683E-03  4290   0.110E-01    0.102E-01
RMM:   3    -0.257520820543E+03    0.14316E-03   -0.81632E-04  3354   0.463E-02    0.540E-02
RMM:   4    -0.257520872572E+03   -0.52030E-04   -0.27974E-04  2994   0.381E-02
  56 F= -.25752087E+03 E0= -.25753154E+03  d E =0.426751E-01
       N       E                     dE             d eps       ncg     rms          rms(c)
DAV:   1    -0.257522466721E+03   -0.16462E-02   -0.37451E-01  4976   0.948E-01    0.299E-01
RMM:   2    -0.257521150975E+03    0.13157E-02   -0.12220E-02  4616   0.172E-01    0.241E-02
RMM:   3    -0.257521204294E+03   -0.53318E-04   -0.65383E-04  3316   0.584E-02
  57 F= -.25752120E+03 E0= -.25753188E+03  d E =0.427088E-01
       N       E                     dE             d eps       ncg     rms          rms(c)
DAV:   1    -0.257524117413E+03   -0.29664E-02   -0.18195E-01  5008   0.655E-01    0.201E-01
RMM:   2    -0.257523405443E+03    0.71197E-03   -0.48347E-03  4294   0.111E-01    0.600E-02
RMM:   3    -0.257523479957E+03   -0.74514E-04   -0.62163E-04  3364   0.503E-02
  58 F= -.25752348E+03 E0= -.25753416E+03  d E =0.427320E-01
       N       E                     dE             d eps       ncg     rms          rms(c)
DAV:   1    -0.257523302984E+03    0.10246E-03   -0.33431E-01  4944   0.895E-01    0.176E-01
RMM:   2    -0.257523317272E+03   -0.14288E-04   -0.33739E-03  4111   0.101E-01    0.247E-02
RMM:   3    -0.257523361102E+03   -0.43830E-04   -0.19043E-04  2849   0.351E-02
  59 F= -.25752336E+03 E0= -.25753403E+03  d E =0.426741E-01
       N       E                     dE             d eps       ncg     rms          rms(c)
DAV:   1    -0.257523913452E+03   -0.59618E-03   -0.16442E-01  4816   0.627E-01    0.128E-01
RMM:   2    -0.257523941997E+03   -0.28545E-04   -0.13548E-03  3595   0.672E-02    0.657E-02
RMM:   3    -0.257523940233E+03    0.17635E-05   -0.23415E-04  2901   0.374E-02
  60 F= -.25752394E+03 E0= -.25753460E+03  d E =0.426393E-01
       N       E                     dE             d eps       ncg     rms          rms(c)
DAV:   1    -0.257523386514E+03    0.55548E-03   -0.32225E-01  4800   0.882E-01    0.176E-01
RMM:   2    -0.257523496863E+03   -0.11035E-03   -0.25565E-03  3939   0.896E-02    0.197E-02
RMM:   3    -0.257523513626E+03   -0.16764E-04   -0.13486E-04  2720   0.325E-02
  61 F= -.25752351E+03 E0= -.25753419E+03  d E =0.426917E-01
       N       E                     dE             d eps       ncg     rms          rms(c)
DAV:   1    -0.257521418720E+03    0.20781E-02   -0.17419E-01  4944   0.668E-01    0.167E-01
RMM:   2    -0.257521371035E+03    0.47685E-04   -0.31476E-03  3922   0.958E-02    0.975E-02
RMM:   3    -0.257521266963E+03    0.10407E-03   -0.83084E-04  3317   0.505E-02    0.522E-02
RMM:   4    -0.257521227187E+03    0.39776E-04   -0.27781E-04  2884   0.376E-02
  62 F= -.25752123E+03 E0= -.25753189E+03  d E =0.426334E-01
       N       E                     dE             d eps       ncg     rms          rms(c)
DAV:   1    -0.257522453729E+03   -0.11868E-02   -0.36970E-01  4896   0.859E-01    0.283E-01
RMM:   2    -0.257521202005E+03    0.12517E-02   -0.11362E-02  4537   0.154E-01    0.257E-02
RMM:   3    -0.257521221001E+03   -0.18996E-04   -0.57743E-04  3141   0.591E-02
  63 F= -.25752122E+03 E0= -.25753189E+03  d E =0.426875E-01
       N       E                     dE             d eps       ncg     rms          rms(c)
DAV:   1    -0.257523923251E+03   -0.27212E-02   -0.18349E-01  4816   0.612E-01    0.195E-01
RMM:   2    -0.257523335684E+03    0.58757E-03   -0.42999E-03  4062   0.100E-01    0.659E-02
RMM:   3    -0.257523330973E+03    0.47114E-05   -0.72789E-04  3328   0.499E-02
  64 F= -.25752333E+03 E0= -.25753400E+03  d E =0.426894E-01
       N       E                     dE             d eps       ncg     rms          rms(c)
DAV:   1    -0.257523434868E+03   -0.99184E-04   -0.33537E-01  4800   0.826E-01    0.182E-01
RMM:   2    -0.257523396235E+03    0.38633E-04   -0.38737E-03  4049   0.972E-02    0.246E-02
RMM:   3    -0.257523416438E+03   -0.20203E-04   -0.21888E-04  2821   0.369E-02
  65 F= -.25752342E+03 E0= -.25753410E+03  d E =0.427404E-01
       N       E                     dE             d eps       ncg     rms          rms(c)
DAV:   1    -0.257523801239E+03   -0.40500E-03   -0.16736E-01  4832   0.585E-01    0.133E-01
RMM:   2    -0.257523790032E+03    0.11207E-04   -0.16663E-03  3520   0.677E-02    0.613E-02
RMM:   3    -0.257523771854E+03    0.18178E-04   -0.22232E-04  2884   0.350E-02
  66 F= -.25752377E+03 E0= -.25753445E+03  d E =0.427254E-01
       N       E                     dE             d eps       ncg     rms          rms(c)
DAV:   1    -0.257523161509E+03    0.62852E-03   -0.33030E-01  4800   0.812E-01    0.166E-01
RMM:   2    -0.257523336962E+03   -0.17545E-03   -0.26008E-03  3765   0.847E-02    0.200E-02
RMM:   3    -0.257523329830E+03    0.71315E-05   -0.15093E-04  2745   0.318E-02
  67 F= -.25752333E+03 E0= -.25753400E+03  d E =0.426708E-01
       N       E                     dE             d eps       ncg     rms          rms(c)
DAV:   1    -0.257522544760E+03    0.79220E-03   -0.16673E-01  4928   0.659E-01    0.134E-01
RMM:   2    -0.257522637355E+03   -0.92595E-04   -0.20379E-03  3719   0.792E-02    0.757E-02
RMM:   3    -0.257522597412E+03    0.39943E-04   -0.29972E-04  2961   0.370E-02
  68 F= -.25752260E+03 E0= -.25753327E+03  d E =0.426924E-01
       N       E                     dE             d eps       ncg     rms          rms(c)
DAV:   1    -0.257523167138E+03   -0.52978E-03   -0.34869E-01  4928   0.896E-01    0.224E-01
RMM:   2    -0.257522688685E+03    0.47845E-03   -0.59401E-03  4379   0.125E-01    0.337E-02
RMM:   3    -0.257522746496E+03   -0.57812E-04   -0.29034E-04  2959   0.440E-02
  69 F= -.25752275E+03 E0= -.25753342E+03  d E =0.427075E-01
       N       E                     dE             d eps       ncg     rms          rms(c)
DAV:   1    -0.257522629768E+03    0.58916E-04   -0.16606E-01  4960   0.616E-01    0.116E-01
RMM:   2    -0.257522771401E+03   -0.14163E-03   -0.12327E-03  3427   0.605E-02    0.723E-02
RMM:   3    -0.257522752516E+03    0.18884E-04   -0.18486E-04  2782   0.321E-02
  70 F= -.25752275E+03 E0= -.25753343E+03  d E =0.426975E-01
       N       E                     dE             d eps       ncg     rms          rms(c)
DAV:   1    -0.257522769784E+03    0.16170E-05   -0.34918E-01  4800   0.899E-01    0.235E-01
RMM:   2    -0.257522147791E+03    0.62199E-03   -0.61003E-03  4289   0.127E-01    0.290E-02
RMM:   3    -0.257522173508E+03   -0.25716E-04   -0.30767E-04  2874   0.451E-02
  71 F= -.25752217E+03 E0= -.25753284E+03  d E =0.426720E-01
       N       E                     dE             d eps       ncg     rms          rms(c)
DAV:   1    -0.257523807390E+03   -0.16596E-02   -0.17783E-01  4800   0.648E-01    0.182E-01
RMM:   2    -0.257523368899E+03    0.43849E-03   -0.34841E-03  4034   0.946E-02    0.675E-02
RMM:   3    -0.257523350365E+03    0.18535E-04   -0.64361E-04  3217   0.460E-02
  72 F= -.25752335E+03 E0= -.25753403E+03  d E =0.427272E-01
       N       E                     dE             d eps       ncg     rms          rms(c)
DAV:   1    -0.257523143697E+03    0.22520E-03   -0.33339E-01  4800   0.878E-01    0.197E-01
RMM:   2    -0.257522921675E+03    0.22202E-03   -0.45040E-03  4173   0.108E-01    0.201E-02
RMM:   3    -0.257522934509E+03   -0.12834E-04   -0.22425E-04  2814   0.394E-02
  73 F= -.25752293E+03 E0= -.25753360E+03  d E =0.426605E-01
       N       E                     dE             d eps       ncg     rms          rms(c)
DAV:   1    -0.257521167396E+03    0.17543E-02   -0.17545E-01  4832   0.665E-01    0.168E-01
RMM:   2    -0.257520944910E+03    0.22249E-03   -0.38762E-03  4036   0.102E-01    0.964E-02
RMM:   3    -0.257520923865E+03    0.21045E-04   -0.96714E-04  3457   0.511E-02
  74 F= -.25752092E+03 E0= -.25753160E+03  d E =0.426938E-01
       N       E                     dE             d eps       ncg     rms          rms(c)
DAV:   1    -0.257522252072E+03   -0.13072E-02   -0.37876E-01  4816   0.808E-01    0.279E-01
RMM:   2    -0.257521289187E+03    0.96289E-03   -0.12158E-02  4320   0.155E-01    0.316E-02
RMM:   3    -0.257521310655E+03   -0.21468E-04   -0.66040E-04  3202   0.550E-02
  75 F= -.25752131E+03 E0= -.25753198E+03  d E =0.426882E-01
       N       E                     dE             d eps       ncg     rms          rms(c)
DAV:   1    -0.257523819926E+03   -0.25307E-02   -0.18392E-01  4864   0.563E-01    0.191E-01
RMM:   2    -0.257523217528E+03    0.60240E-03   -0.44034E-03  3897   0.923E-02    0.636E-02
RMM:   3    -0.257523235262E+03   -0.17734E-04   -0.50620E-04  3109   0.410E-02
  76 F= -.25752324E+03 E0= -.25753391E+03  d E =0.426924E-01
       N       E                     dE             d eps       ncg     rms          rms(c)
DAV:   1    -0.257523600511E+03   -0.38298E-03   -0.33615E-01  4800   0.762E-01    0.172E-01
RMM:   2    -0.257523739955E+03   -0.13944E-03   -0.28772E-03  3605   0.821E-02    0.303E-02
RMM:   3    -0.257523726333E+03    0.13622E-04   -0.19782E-04  2804   0.322E-02
  77 F= -.25752373E+03 E0= -.25753439E+03  d E =0.426504E-01
       N       E                     dE             d eps       ncg     rms          rms(c)
DAV:   1    -0.257523685838E+03    0.54117E-04   -0.16845E-01  4800   0.536E-01    0.128E-01
RMM:   2    -0.257523665647E+03    0.20191E-04   -0.15394E-03  3385   0.599E-02    0.598E-02
RMM:   3    -0.257523737427E+03   -0.71780E-04   -0.35556E-04  3053   0.374E-02
  78 F= -.25752374E+03 E0= -.25753442E+03  d E =0.427162E-01
       N       E                     dE             d eps       ncg     rms          rms(c)
DAV:   1    -0.257523249506E+03    0.41614E-03   -0.33492E-01  4800   0.760E-01    0.169E-01
RMM:   2    -0.257523384729E+03   -0.13522E-03   -0.26965E-03  3700   0.808E-02    0.178E-02
RMM:   3    -0.257523385153E+03   -0.42384E-06   -0.14504E-04  2743   0.294E-02
  79 F= -.25752339E+03 E0= -.25753406E+03  d E =0.426888E-01
       N       E                     dE             d eps       ncg     rms          rms(c)
DAV:   1    -0.257523349010E+03    0.35719E-04   -0.16520E-01  4816   0.628E-01    0.116E-01
RMM:   2    -0.257523485599E+03   -0.13659E-03   -0.12651E-03  3362   0.603E-02    0.574E-02
RMM:   3    -0.257523468259E+03    0.17340E-04   -0.20983E-04  2849   0.339E-02
  80 F= -.25752347E+03 E0= -.25753414E+03  d E =0.426933E-01
       N       E                     dE             d eps       ncg     rms          rms(c)
DAV:   1    -0.257523529871E+03   -0.44273E-04   -0.33320E-01  4800   0.865E-01    0.169E-01
RMM:   2    -0.257523677259E+03   -0.14739E-03   -0.26852E-03  3714   0.833E-02    0.187E-02
RMM:   3    -0.257523695620E+03   -0.18361E-04   -0.12728E-04  2706   0.275E-02
  81 F= -.25752370E+03 E0= -.25753437E+03  d E =0.426788E-01
       N       E                     dE             d eps       ncg     rms          rms(c)
DAV:   1    -0.257521439450E+03    0.22378E-02   -0.18056E-01  4816   0.640E-01    0.180E-01
RMM:   2    -0.257521195006E+03    0.24444E-03   -0.29275E-03  3761   0.879E-02    0.956E-02
RMM:   3    -0.257521114250E+03    0.80756E-04   -0.76616E-04  3300   0.443E-02
  82 F= -.25752111E+03 E0= -.25753180E+03  d E =0.427559E-01
       N       E                     dE             d eps       ncg     rms          rms(c)
DAV:   1    -0.257522608934E+03   -0.14139E-02   -0.37165E-01  4848   0.916E-01    0.281E-01
RMM:   2    -0.257521432265E+03    0.11767E-02   -0.11648E-02  4373   0.158E-01    0.289E-02
RMM:   3    -0.257521490175E+03   -0.57910E-04   -0.64752E-04  3167   0.548E-02
  83 F= -.25752149E+03 E0= -.25753216E+03  d E =0.426929E-01
       N       E                     dE             d eps       ncg     rms          rms(c)
DAV:   1    -0.257523499778E+03   -0.20675E-02   -0.16868E-01  4864   0.624E-01    0.135E-01
RMM:   2    -0.257523468226E+03    0.31552E-04   -0.21360E-03  3659   0.696E-02    0.596E-02
RMM:   3    -0.257523447539E+03    0.20687E-04   -0.13593E-04  2744   0.323E-02
  84 F= -.25752345E+03 E0= -.25753412E+03  d E =0.426799E-01
       N       E                     dE             d eps       ncg     rms          rms(c)
DAV:   1    -0.257523046899E+03    0.42133E-03   -0.34216E-01  4800   0.878E-01    0.192E-01
RMM:   2    -0.257523020360E+03    0.26539E-04   -0.35835E-03  3909   0.937E-02    0.241E-02
RMM:   3    -0.257523013384E+03    0.69760E-05   -0.14677E-04  2733   0.324E-02
  85 F= -.25752301E+03 E0= -.25753369E+03  d E =0.426914E-01
       N       E                     dE             d eps       ncg     rms          rms(c)
DAV:   1    -0.257521129151E+03    0.18912E-02   -0.17965E-01  4880   0.672E-01    0.173E-01
RMM:   2    -0.257521061006E+03    0.68145E-04   -0.31736E-03  3955   0.970E-02    0.102E-01
RMM:   3    -0.257520877298E+03    0.18371E-03   -0.85261E-04  3317   0.469E-02    0.539E-02
RMM:   4    -0.257520841762E+03    0.35536E-04   -0.22254E-04  2900   0.364E-02
  86 F= -.25752084E+03 E0= -.25753150E+03  d E =0.426407E-01
       N       E                     dE             d eps       ncg     rms          rms(c)
DAV:   1    -0.257522473395E+03   -0.15961E-02   -0.37600E-01  4800   0.871E-01    0.290E-01
RMM:   2    -0.257521154639E+03    0.13188E-02   -0.11866E-02  4481   0.160E-01    0.288E-02
RMM:   3    -0.257521156090E+03   -0.14510E-05   -0.67896E-04  3242   0.604E-02
  87 F= -.25752116E+03 E0= -.25753183E+03  d E =0.426843E-01
       N       E                     dE             d eps       ncg     rms          rms(c)
DAV:   1    -0.257523977037E+03   -0.28224E-02   -0.18219E-01  4976   0.605E-01    0.188E-01
RMM:   2    -0.257523458391E+03    0.51865E-03   -0.41787E-03  4004   0.954E-02    0.620E-02
RMM:   3    -0.257523418535E+03    0.39856E-04   -0.48684E-04  3169   0.458E-02
  88 F= -.25752342E+03 E0= -.25753408E+03  d E =0.426297E-01
       N       E                     dE             d eps       ncg     rms          rms(c)
DAV:   1    -0.257523421194E+03    0.37197E-04   -0.33392E-01  4800   0.822E-01    0.171E-01
RMM:   2    -0.257523579803E+03   -0.15861E-03   -0.34526E-03  4021   0.931E-02    0.219E-02
RMM:   3    -0.257523569955E+03    0.98480E-05   -0.17577E-04  2798   0.322E-02
  89 F= -.25752357E+03 E0= -.25753424E+03  d E =0.426826E-01
       N       E                     dE             d eps       ncg     rms          rms(c)
DAV:   1    -0.257523690491E+03   -0.11069E-03   -0.16697E-01  4944   0.581E-01    0.125E-01
RMM:   2    -0.257523705268E+03   -0.14777E-04   -0.13642E-03  3411   0.588E-02    0.604E-02
RMM:   3    -0.257523712816E+03   -0.75478E-05   -0.18077E-04  2819   0.314E-02
  90 F= -.25752371E+03 E0= -.25753437E+03  d E =0.426244E-01
       N       E                     dE             d eps       ncg     rms          rms(c)
DAV:   1    -0.257523206364E+03    0.49890E-03   -0.33124E-01  4800   0.813E-01    0.166E-01
RMM:   2    -0.257523361556E+03   -0.15519E-03   -0.25745E-03  3719   0.829E-02    0.184E-02
RMM:   3    -0.257523368373E+03   -0.68177E-05   -0.13373E-04  2706   0.297E-02
  91 F= -.25752337E+03 E0= -.25753404E+03  d E =0.426899E-01
       N       E                     dE             d eps       ncg     rms          rms(c)
DAV:   1    -0.257518047292E+03    0.53143E-02   -0.64638E-01  4800   0.131E+00    0.163E-01
RMM:   2    -0.257518455001E+03   -0.40771E-03   -0.53904E-03  3825   0.117E-01    0.124E-01
RMM:   3    -0.257518101965E+03    0.35304E-03   -0.87892E-04  3234   0.437E-02    0.350E-02
RMM:   4    -0.257518072311E+03    0.29654E-04   -0.10737E-04  2643   0.256E-02
  92 F= -.25751807E+03 E0= -.25752875E+03  d E =0.426965E-01
       N       E                     dE             d eps       ncg     rms          rms(c)
DAV:   1    -0.257518858625E+03   -0.75666E-03   -0.22626E+00  4800   0.236E+00    0.281E-01
RMM:   2    -0.257518672324E+03    0.18630E-03   -0.17774E-02  4119   0.209E-01    0.223E-02
RMM:   3    -0.257518703712E+03   -0.31389E-04   -0.67976E-04  3135   0.544E-02
  93 F= -.25751870E+03 E0= -.25752938E+03  d E =0.426985E-01
       N       E                     dE             d eps       ncg     rms          rms(c)
DAV:   1    -0.257518649504E+03    0.22819E-04   -0.11270E+00  4800   0.170E+00    0.202E-01
RMM:   2    -0.257518785811E+03   -0.13631E-03   -0.76633E-03  3884   0.140E-01    0.122E-01
RMM:   3    -0.257518461858E+03    0.32395E-03   -0.11138E-03  3350   0.514E-02    0.361E-02
RMM:   4    -0.257518433775E+03    0.28083E-04   -0.12684E-04  2647   0.278E-02
  94 F= -.25751843E+03 E0= -.25752911E+03  d E =0.427088E-01
       N       E                     dE             d eps       ncg     rms          rms(c)
DAV:   1    -0.257518538443E+03   -0.76586E-04   -0.22687E+00  4800   0.238E+00    0.292E-01
RMM:   2    -0.257518141233E+03    0.39721E-03   -0.16722E-02  4148   0.208E-01    0.270E-02
RMM:   3    -0.257518149674E+03   -0.84412E-05   -0.72801E-04  3137   0.564E-02
  95 F= -.25751815E+03 E0= -.25752883E+03  d E =0.427031E-01
       N       E                     dE             d eps       ncg     rms          rms(c)
DAV:   1    -0.257519250248E+03   -0.11090E-02   -0.11188E+00  4800   0.176E+00    0.194E-01
RMM:   2    -0.257519605777E+03   -0.35553E-03   -0.97584E-03  4134   0.163E-01    0.115E-01
RMM:   3    -0.257519285622E+03    0.32016E-03   -0.12420E-03  3549   0.586E-02    0.544E-02
RMM:   4    -0.257519273847E+03    0.11774E-04   -0.25625E-04  2893   0.342E-02
  96 F= -.25751927E+03 E0= -.25752996E+03  d E =0.427289E-01
       N       E                     dE             d eps       ncg     rms          rms(c)
DAV:   1    -0.257518792049E+03    0.49357E-03   -0.22228E+00  4800   0.255E+00    0.259E-01
RMM:   2    -0.257519413032E+03   -0.62098E-03   -0.22819E-02  4389   0.252E-01    0.330E-02
RMM:   3    -0.257519467560E+03   -0.54528E-04   -0.11605E-03  3489   0.694E-02    0.176E-02
RMM:   4    -0.257519468359E+03   -0.79939E-06   -0.19236E-04  2728   0.276E-02
  97 F= -.25751947E+03 E0= -.25753014E+03  d E =0.426866E-01
       N       E                     dE             d eps       ncg     rms          rms(c)
DAV:   1    -0.257521287628E+03   -0.18201E-02   -0.64560E-01  4800   0.137E+00    0.191E-01
RMM:   2    -0.257521468939E+03   -0.18131E-03   -0.69766E-03  4031   0.136E-01    0.110E-01
RMM:   3    -0.257521261066E+03    0.20787E-03   -0.11028E-03  3522   0.550E-02    0.567E-02
RMM:   4    -0.257521247781E+03    0.13285E-04   -0.24227E-04  2865   0.389E-02
  98 F= -.25752125E+03 E0= -.25753192E+03  d E =0.426788E-01
       N       E                     dE             d eps       ncg     rms          rms(c)
DAV:   1    -0.257522276758E+03   -0.10157E-02   -0.37749E-01  4928   0.735E-01    0.287E-01
RMM:   2    -0.257521062164E+03    0.12146E-02   -0.11624E-02  4089   0.140E-01    0.271E-02
RMM:   3    -0.257521097264E+03   -0.35100E-04   -0.80624E-04  3309   0.523E-02
  99 F= -.25752110E+03 E0= -.25753177E+03  d E =0.427106E-01
       N       E                     dE             d eps       ncg     rms          rms(c)
DAV:   1    -0.257523878981E+03   -0.28168E-02   -0.18436E-01  4928   0.512E-01    0.190E-01
RMM:   2    -0.257523401888E+03    0.47709E-03   -0.46802E-03  3758   0.889E-02    0.643E-02
RMM:   3    -0.257523420296E+03   -0.18408E-04   -0.52537E-04  3125   0.405E-02
 100 F= -.25752342E+03 E0= -.25753411E+03  d E =0.427681E-01
       N       E                     dE             d eps       ncg     rms          rms(c)
DAV:   1    -0.257523355790E+03    0.46098E-04   -0.33775E-01  4800   0.702E-01    0.176E-01
RMM:   2    -0.257523445559E+03   -0.89769E-04   -0.31203E-03  3528   0.799E-02    0.255E-02
RMM:   3    -0.257523448469E+03   -0.29097E-05   -0.16701E-04  2740   0.297E-02
 101 F= -.25752345E+03 E0= -.25753412E+03  d E =0.426751E-01
       N       E                     dE             d eps       ncg     rms          rms(c)
DAV:   1    -0.257523874047E+03   -0.42849E-03   -0.17027E-01  4800   0.491E-01    0.131E-01
RMM:   2    -0.257523889870E+03   -0.15823E-04   -0.14928E-03  3261   0.547E-02    0.630E-02
RMM:   3    -0.257523870465E+03    0.19405E-04   -0.20891E-04  2795   0.293E-02
 102 F= -.25752387E+03 E0= -.25753454E+03  d E =0.426631E-01
       N       E                     dE             d eps       ncg     rms          rms(c)
DAV:   1    -0.257522989867E+03    0.90000E-03   -0.33826E-01  4784   0.684E-01    0.173E-01
RMM:   2    -0.257523119026E+03   -0.12916E-03   -0.27089E-03  3531   0.751E-02    0.225E-02
RMM:   3    -0.257523113519E+03    0.55070E-05   -0.11992E-04  2698   0.274E-02
 103 F= -.25752311E+03 E0= -.25753378E+03  d E =0.426578E-01
       N       E                     dE             d eps       ncg     rms          rms(c)
DAV:   1    -0.257521664793E+03    0.14542E-02   -0.17664E-01  4832   0.550E-01    0.159E-01
RMM:   2    -0.257521676407E+03   -0.11613E-04   -0.38001E-03  3586   0.844E-02    0.957E-02
RMM:   3    -0.257521552736E+03    0.12367E-03   -0.72094E-04  3221   0.415E-02    0.436E-02
RMM:   4    -0.257521558737E+03   -0.60007E-05   -0.18482E-04  2774   0.273E-02
 104 F= -.25752156E+03 E0= -.25753225E+03  d E =0.427619E-01
       N       E                     dE             d eps       ncg     rms          rms(c)
DAV:   1    -0.257521621136E+03   -0.68400E-04   -0.38001E-01  4800   0.765E-01    0.284E-01
RMM:   2    -0.257520465326E+03    0.11558E-02   -0.11760E-02  4002   0.138E-01    0.254E-02
RMM:   3    -0.257520504486E+03   -0.39160E-04   -0.52898E-04  3078   0.479E-02
 105 F= -.25752050E+03 E0= -.25753118E+03  d E =0.426835E-01
       N       E                     dE             d eps       ncg     rms          rms(c)
DAV:   1    -0.257524245358E+03   -0.37800E-02   -0.18493E-01  4816   0.529E-01    0.192E-01
RMM:   2    -0.257523705422E+03    0.53994E-03   -0.46261E-03  3650   0.856E-02    0.639E-02
RMM:   3    -0.257523711881E+03   -0.64585E-05   -0.38074E-04  2951   0.365E-02
 106 F= -.25752371E+03 E0= -.25753437E+03  d E =0.426486E-01
       N       E                     dE             d eps       ncg     rms          rms(c)
DAV:   1    -0.257523219416E+03    0.48601E-03   -0.33607E-01  4816   0.723E-01    0.173E-01
RMM:   2    -0.257523332006E+03   -0.11259E-03   -0.29588E-03  3595   0.778E-02    0.202E-02
RMM:   3    -0.257523332489E+03   -0.48356E-06   -0.13716E-04  2678   0.253E-02
 107 F= -.25752333E+03 E0= -.25753401E+03  d E =0.426981E-01
       N       E                     dE             d eps       ncg     rms          rms(c)
DAV:   1    -0.257523764095E+03   -0.43209E-03   -0.16890E-01  4736   0.513E-01    0.130E-01
RMM:   2    -0.257523764935E+03   -0.83991E-06   -0.16532E-03  3343   0.576E-02    0.624E-02
RMM:   3    -0.257523754644E+03    0.10290E-04   -0.14374E-04  2665   0.269E-02
 108 F= -.25752375E+03 E0= -.25753443E+03  d E =0.427136E-01
       N       E                     dE             d eps       ncg     rms          rms(c)
DAV:   1    -0.257523116875E+03    0.64806E-03   -0.33657E-01  4800   0.724E-01    0.172E-01
RMM:   2    -0.257523236248E+03   -0.11937E-03   -0.24807E-03  3508   0.733E-02    0.204E-02
RMM:   3    -0.257523234953E+03    0.12947E-05   -0.12388E-04  2601   0.242E-02
 109 F= -.25752323E+03 E0= -.25753391E+03  d E =0.426848E-01
       N       E                     dE             d eps       ncg     rms          rms(c)
DAV:   1    -0.257523591454E+03   -0.35521E-03   -0.16569E-01  4912   0.592E-01    0.118E-01
RMM:   2    -0.257523718301E+03   -0.12685E-03   -0.14883E-03  3266   0.564E-02    0.650E-02
RMM:   3    -0.257523694362E+03    0.23939E-04   -0.13200E-04  2573   0.247E-02
 110 F= -.25752369E+03 E0= -.25753437E+03  d E =0.427225E-01
       N       E                     dE             d eps       ncg     rms          rms(c)
DAV:   1    -0.257523274324E+03    0.44398E-03   -0.33339E-01  4896   0.800E-01    0.169E-01
RMM:   2    -0.257523439324E+03   -0.16500E-03   -0.25146E-03  3440   0.728E-02    0.158E-02
RMM:   3    -0.257523432501E+03    0.68228E-05   -0.11768E-04  2352   0.240E-02
 111 F= -.25752343E+03 E0= -.25753410E+03  d E =0.426672E-01
       N       E                     dE             d eps       ncg     rms          rms(c)
DAV:   1    -0.257521359671E+03    0.20797E-02   -0.18270E-01  4976   0.590E-01    0.182E-01
RMM:   2    -0.257521025555E+03    0.33412E-03   -0.35962E-03  3810   0.860E-02    0.986E-02
RMM:   3    -0.257520945578E+03    0.79977E-04   -0.39622E-04  2977   0.340E-02
 112 F= -.25752095E+03 E0= -.25753164E+03  d E =0.427704E-01
       N       E                     dE             d eps       ncg     rms          rms(c)
DAV:   1    -0.257522422175E+03   -0.13966E-02   -0.37492E-01  4800   0.843E-01    0.271E-01
RMM:   2    -0.257521510325E+03    0.91185E-03   -0.10432E-02  4061   0.143E-01    0.371E-02
RMM:   3    -0.257521516757E+03   -0.64315E-05   -0.56392E-04  3093   0.464E-02
 113 F= -.25752152E+03 E0= -.25753219E+03  d E =0.426916E-01
       N       E                     dE             d eps       ncg     rms          rms(c)
DAV:   1    -0.257523629525E+03   -0.21192E-02   -0.16919E-01  5024   0.576E-01    0.132E-01
RMM:   2    -0.257523635428E+03   -0.59038E-05   -0.19210E-03  3473   0.626E-02    0.658E-02
RMM:   3    -0.257523627591E+03    0.78378E-05   -0.16549E-04  2714   0.285E-02
 114 F= -.25752363E+03 E0= -.25753430E+03  d E =0.426795E-01
       N       E                     dE             d eps       ncg     rms          rms(c)
DAV:   1    -0.257522833024E+03    0.80240E-03   -0.34350E-01  4912   0.811E-01    0.190E-01
RMM:   2    -0.257522788063E+03    0.44962E-04   -0.34647E-03  3751   0.843E-02    0.256E-02
RMM:   3    -0.257522791615E+03   -0.35521E-05   -0.14599E-04  2679   0.289E-02
 115 F= -.25752279E+03 E0= -.25753347E+03  d E =0.426950E-01
       N       E                     dE             d eps       ncg     rms          rms(c)
DAV:   1    -0.257522742497E+03    0.45565E-04   -0.17381E-01  4912   0.596E-01    0.144E-01
RMM:   2    -0.257522710053E+03    0.32444E-04   -0.21077E-03  3526   0.653E-02    0.709E-02
RMM:   3    -0.257522692919E+03    0.17134E-04   -0.16456E-04  2758   0.307E-02
 116 F= -.25752269E+03 E0= -.25753337E+03  d E =0.427129E-01
       N       E                     dE             d eps       ncg     rms          rms(c)
DAV:   1    -0.257522790309E+03   -0.80256E-04   -0.35009E-01  4928   0.822E-01    0.217E-01
RMM:   2    -0.257522561850E+03    0.22846E-03   -0.50232E-03  3890   0.102E-01    0.348E-02
RMM:   3    -0.257522524881E+03    0.36969E-04   -0.27211E-04  2820   0.318E-02
 117 F= -.25752252E+03 E0= -.25753320E+03  d E =0.427064E-01
       N       E                     dE             d eps       ncg     rms          rms(c)
DAV:   1    -0.257522490709E+03    0.71141E-04   -0.16554E-01  4976   0.572E-01    0.114E-01
RMM:   2    -0.257522651127E+03   -0.16042E-03   -0.12251E-03  3315   0.533E-02    0.707E-02
RMM:   3    -0.257522681727E+03   -0.30600E-04   -0.20379E-04  2873   0.305E-02
 118 F= -.25752268E+03 E0= -.25753337E+03  d E =0.427500E-01
       N       E                     dE             d eps       ncg     rms          rms(c)
DAV:   1    -0.257522644100E+03    0.70274E-05   -0.35879E-01  5024   0.838E-01    0.232E-01
RMM:   2    -0.257522049703E+03    0.59440E-03   -0.70274E-03  4058   0.114E-01    0.331E-02
RMM:   3    -0.257522065189E+03   -0.15486E-04   -0.33706E-04  2877   0.356E-02
 119 F= -.25752207E+03 E0= -.25753274E+03  d E =0.427047E-01
       N       E                     dE             d eps       ncg     rms          rms(c)
DAV:   1    -0.257523724560E+03   -0.16749E-02   -0.18279E-01  4976   0.591E-01    0.182E-01
RMM:   2    -0.257523331711E+03    0.39285E-03   -0.42551E-03  3755   0.891E-02    0.618E-02
RMM:   3    -0.257523340707E+03   -0.89957E-05   -0.36292E-04  2877   0.361E-02
 120 F= -.25752334E+03 E0= -.25753401E+03  d E =0.426785E-01
       N       E                     dE             d eps       ncg     rms          rms(c)
DAV:   1    -0.257522963403E+03    0.36831E-03   -0.34709E-01  4944   0.818E-01    0.203E-01
RMM:   2    -0.257522762817E+03    0.20059E-03   -0.46969E-03  3814   0.912E-02    0.202E-02
RMM:   3    -0.257522768329E+03   -0.55121E-05   -0.19974E-04  2734   0.344E-02
 121 F= -.25752277E+03 E0= -.25753344E+03  d E =0.426838E-01
