       N       E                     dE             d eps       ncg     rms          rms(c)
DAV:   1     0.353756234133E+04    0.35376E+04   -0.14304E+05  4832   0.117E+03
DAV:   2     0.184912410771E+03   -0.33526E+04   -0.30718E+04  5032   0.446E+02
DAV:   3    -0.237071966522E+03   -0.42198E+03   -0.39219E+03  6392   0.130E+02
DAV:   4    -0.269564484467E+03   -0.32493E+02   -0.29353E+02  7016   0.371E+01
DAV:   5    -0.270632764506E+03   -0.10683E+01   -0.10430E+01  6520   0.583E+00    0.280E+01
RMM:   6    -0.261453294683E+03    0.91795E+01   -0.15083E+01  5335   0.728E+00    0.214E+01
RMM:   7    -0.267557118816E+03   -0.61038E+01   -0.18908E+01  5250   0.796E+00    0.256E+01
RMM:   8    -0.270361775104E+03   -0.28047E+01   -0.15885E+01  5318   0.724E+00    0.264E+01
RMM:   9    -0.248278641187E+03    0.22083E+02   -0.11566E+01  4930   0.829E+00    0.114E+01
RMM:  10    -0.246575387321E+03    0.17033E+01   -0.30715E+00  5346   0.358E+00    0.611E+00
RMM:  11    -0.246318183679E+03    0.25720E+00   -0.18402E+00  4948   0.309E+00    0.401E+00
RMM:  12    -0.246171235055E+03    0.14695E+00   -0.47813E-01  5470   0.143E+00    0.249E+00
RMM:  13    -0.246167765160E+03    0.34699E-02   -0.14955E-01  4911   0.837E-01    0.167E+00
RMM:  14    -0.246163467425E+03    0.42977E-02   -0.78255E-02  5133   0.551E-01    0.108E+00
RMM:  15    -0.246147352288E+03    0.16115E-01   -0.49977E-02  4927   0.492E-01    0.761E-01
RMM:  16    -0.246147840758E+03   -0.48847E-03   -0.22852E-02  5421   0.297E-01    0.516E-01
RMM:  17    -0.246152582515E+03   -0.47418E-02   -0.11786E-02  4892   0.196E-01    0.367E-01
RMM:  18    -0.246153181034E+03   -0.59852E-03   -0.57587E-03  4860   0.162E-01    0.254E-01
RMM:  19    -0.246153332080E+03   -0.15105E-03   -0.23321E-03  4951   0.103E-01    0.182E-01
RMM:  20    -0.246153242066E+03    0.90014E-04   -0.22239E-03  4790   0.910E-02    0.111E-01
RMM:  21    -0.246152929221E+03    0.31285E-03   -0.10269E-03  4576   0.724E-02    0.625E-02
RMM:  22    -0.246152777029E+03    0.15219E-03   -0.35253E-04  3219   0.369E-02    0.494E-02
RMM:  23    -0.246152643631E+03    0.13340E-03   -0.26461E-04  3002   0.381E-02    0.305E-02
RMM:  24    -0.246152718543E+03   -0.74913E-04   -0.41328E-04  3394   0.424E-02
   1 F= -.24615272E+03 E0= -.24615663E+03  d E =0.156443E-01
       N       E                     dE             d eps       ncg     rms          rms(c)
DAV:   1    -0.246147638131E+03    0.50055E-02   -0.54164E-01  5088   0.135E+00    0.124E-01
RMM:   2    -0.246148581959E+03   -0.94383E-03   -0.95812E-03  4557   0.166E-01    0.115E-01
RMM:   3    -0.246148589578E+03   -0.76191E-05   -0.51757E-04  3190   0.580E-02
   2 F= -.24614859E+03 E0= -.24615257E+03  d E =0.159173E-01
       N       E                     dE             d eps       ncg     rms          rms(c)
DAV:   1    -0.246145967222E+03    0.26147E-02   -0.22061E+00  4952   0.272E+00    0.246E-01
RMM:   2    -0.246147882300E+03   -0.19151E-02   -0.39026E-02  4786   0.334E-01    0.586E-02
RMM:   3    -0.246148084634E+03   -0.20233E-03   -0.17907E-03  3995   0.108E-01    0.265E-02
RMM:   4    -0.246148172411E+03   -0.87777E-04   -0.40924E-04  3124   0.387E-02
   3 F= -.24614817E+03 E0= -.24615214E+03  d E =0.158668E-01
       N       E                     dE             d eps       ncg     rms          rms(c)
DAV:   1    -0.246146217998E+03    0.18666E-02   -0.10997E+00  4912   0.193E+00    0.181E-01
RMM:   2    -0.246147532763E+03   -0.13148E-02   -0.16450E-02  4689   0.221E-01    0.123E-01
RMM:   3    -0.246147311340E+03    0.22142E-03   -0.83201E-04  3457   0.695E-02    0.868E-02
RMM:   4    -0.246147182126E+03    0.12921E-03   -0.76173E-04  3397   0.442E-02    0.272E-02
RMM:   5    -0.246147201293E+03   -0.19168E-04   -0.66397E-05  2624   0.266E-02
   4 F= -.24614720E+03 E0= -.24615117E+03  d E =0.158759E-01
       N       E                     dE             d eps       ncg     rms          rms(c)
DAV:   1    -0.246146000749E+03    0.11814E-02   -0.22154E+00  4880   0.264E+00    0.255E-01
RMM:   2    -0.246147233553E+03   -0.12328E-02   -0.29509E-02  4731   0.285E-01    0.375E-02
RMM:   3    -0.246147258117E+03   -0.24565E-04   -0.12360E-03  3593   0.831E-02    0.220E-02
RMM:   4    -0.246147312230E+03   -0.54113E-04   -0.24880E-04  2902   0.316E-02
   5 F= -.24614731E+03 E0= -.24615127E+03  d E =0.158184E-01
       N       E                     dE             d eps       ncg     rms          rms(c)
DAV:   1    -0.246147346663E+03   -0.88546E-04   -0.10852E+00  4840   0.191E+00    0.178E-01
RMM:   2    -0.246148506777E+03   -0.11601E-02   -0.15917E-02  4628   0.224E-01    0.122E-01
RMM:   3    -0.246148410313E+03    0.96463E-04   -0.74829E-04  3391   0.708E-02
   6 F= -.24614841E+03 E0= -.24615233E+03  d E =0.156936E-01
       N       E                     dE             d eps       ncg     rms          rms(c)
DAV:   1    -0.246146514691E+03    0.19921E-02   -0.22049E+00  4800   0.273E+00    0.256E-01
RMM:   2    -0.246148159429E+03   -0.16447E-02   -0.30108E-02  4739   0.307E-01    0.375E-02
RMM:   3    -0.246148232533E+03   -0.73104E-04   -0.13645E-03  3873   0.929E-02    0.273E-02
RMM:   4    -0.246148229825E+03    0.27080E-05   -0.29355E-04  2982   0.347E-02
   7 F= -.24614823E+03 E0= -.24615219E+03  d E =0.158377E-01
       N       E                     dE             d eps       ncg     rms          rms(c)
DAV:   1    -0.246146765733E+03    0.14668E-02   -0.11038E+00  4816   0.197E+00    0.176E-01
RMM:   2    -0.246148356756E+03   -0.15910E-02   -0.20051E-02  4709   0.238E-01    0.117E-01
RMM:   3    -0.246148398919E+03   -0.42163E-04   -0.86362E-04  3394   0.723E-02
   8 F= -.24614840E+03 E0= -.24615236E+03  d E =0.158609E-01
       N       E                     dE             d eps       ncg     rms          rms(c)
DAV:   1    -0.246145965227E+03    0.23915E-02   -0.22293E+00  4808   0.268E+00    0.228E-01
RMM:   2    -0.246148071719E+03   -0.21065E-02   -0.33472E-02  4789   0.319E-01    0.691E-02
RMM:   3    -0.246148113353E+03   -0.41634E-04   -0.15965E-03  3959   0.967E-02    0.415E-02
RMM:   4    -0.246148027475E+03    0.85878E-04   -0.44212E-04  3180   0.444E-02
   9 F= -.24614803E+03 E0= -.24615199E+03  d E =0.158544E-01
       N       E                     dE             d eps       ncg     rms          rms(c)
DAV:   1    -0.246147702007E+03    0.41135E-03   -0.10831E+00  4800   0.190E+00    0.189E-01
RMM:   2    -0.246148711210E+03   -0.10092E-02   -0.15859E-02  4702   0.221E-01    0.116E-01
RMM:   3    -0.246148597495E+03    0.11371E-03   -0.83236E-04  3473   0.700E-02    0.822E-02
RMM:   4    -0.246148449623E+03    0.14787E-03   -0.95134E-04  3563   0.479E-02    0.316E-02
RMM:   5    -0.246148442506E+03    0.71172E-05   -0.76905E-05  2633   0.280E-02
  10 F= -.24614844E+03 E0= -.24615239E+03  d E =0.157933E-01
       N       E                     dE             d eps       ncg     rms          rms(c)
DAV:   1    -0.246147341888E+03    0.11077E-02   -0.21561E+00  4832   0.261E+00    0.256E-01
RMM:   2    -0.246148633739E+03   -0.12919E-02   -0.32122E-02  4768   0.307E-01    0.286E-02
RMM:   3    -0.246148796716E+03   -0.16298E-03   -0.16117E-03  3856   0.105E-01    0.163E-02
RMM:   4    -0.246148838291E+03   -0.41575E-04   -0.37343E-04  3033   0.347E-02
  11 F= -.24614884E+03 E0= -.24615280E+03  d E =0.158308E-01
       N       E                     dE             d eps       ncg     rms          rms(c)
DAV:   1    -0.246147068507E+03    0.17282E-02   -0.10757E+00  4800   0.183E+00    0.178E-01
RMM:   2    -0.246147891955E+03   -0.82345E-03   -0.15592E-02  4711   0.216E-01    0.127E-01
RMM:   3    -0.246147763106E+03    0.12885E-03   -0.84297E-04  3408   0.717E-02    0.939E-02
RMM:   4    -0.246147678571E+03    0.84535E-04   -0.78528E-04  3492   0.533E-02
  12 F= -.24614768E+03 E0= -.24615164E+03  d E =0.158591E-01
       N       E                     dE             d eps       ncg     rms          rms(c)
DAV:   1    -0.246146913738E+03    0.84937E-03   -0.22033E+00  4800   0.267E+00    0.274E-01
RMM:   2    -0.246147893799E+03   -0.98006E-03   -0.26959E-02  4760   0.291E-01    0.361E-02
RMM:   3    -0.246147950039E+03   -0.56240E-04   -0.11992E-03  3703   0.906E-02    0.314E-02
RMM:   4    -0.246147947104E+03    0.29342E-05   -0.27796E-04  2948   0.348E-02
  13 F= -.24614795E+03 E0= -.24615189E+03  d E =0.157768E-01
       N       E                     dE             d eps       ncg     rms          rms(c)
DAV:   1    -0.246145959765E+03    0.19903E-02   -0.10837E+00  4816   0.197E+00    0.171E-01
RMM:   2    -0.246147577812E+03   -0.16180E-02   -0.21729E-02  4743   0.250E-01    0.121E-01
RMM:   3    -0.246147627397E+03   -0.49586E-04   -0.11445E-03  3548   0.858E-02    0.115E-01
RMM:   4    -0.246147408989E+03    0.21841E-03   -0.17542E-03  4508   0.852E-02    0.639E-02
RMM:   5    -0.246147412230E+03   -0.32406E-05   -0.33272E-04  2972   0.438E-02
  14 F= -.24614741E+03 E0= -.24615134E+03  d E =0.157154E-01
       N       E                     dE             d eps       ncg     rms          rms(c)
DAV:   1    -0.246145660478E+03    0.17485E-02   -0.21819E+00  4800   0.270E+00    0.263E-01
RMM:   2    -0.246147515335E+03   -0.18549E-02   -0.38698E-02  4779   0.340E-01    0.360E-02
RMM:   3    -0.246147741470E+03   -0.22614E-03   -0.23610E-03  4048   0.129E-01    0.249E-02
RMM:   4    -0.246147779700E+03   -0.38230E-04   -0.48217E-04  3169   0.368E-02
  15 F= -.24614778E+03 E0= -.24615176E+03  d E =0.159144E-01
       N       E                     dE             d eps       ncg     rms          rms(c)
DAV:   1    -0.246147077654E+03    0.66382E-03   -0.10961E+00  4800   0.191E+00    0.196E-01
RMM:   2    -0.246148019183E+03   -0.94153E-03   -0.18417E-02  4737   0.242E-01    0.114E-01
RMM:   3    -0.246148041019E+03   -0.21836E-04   -0.12143E-03  3694   0.924E-02    0.936E-02
RMM:   4    -0.246147891195E+03    0.14982E-03   -0.84931E-04  3418   0.486E-02    0.408E-02
RMM:   5    -0.246147888650E+03    0.25449E-05   -0.27054E-04  2912   0.348E-02
  16 F= -.24614789E+03 E0= -.24615186E+03  d E =0.158777E-01
       N       E                     dE             d eps       ncg     rms          rms(c)
DAV:   1    -0.246145637853E+03    0.22533E-02   -0.21634E+00  4800   0.270E+00    0.241E-01
RMM:   2    -0.246148091933E+03   -0.24541E-02   -0.37767E-02  4784   0.338E-01    0.391E-02
RMM:   3    -0.246148322739E+03   -0.23081E-03   -0.23387E-03  4096   0.125E-01    0.365E-02
RMM:   4    -0.246148380253E+03   -0.57514E-04   -0.49960E-04  3172   0.389E-02
  17 F= -.24614838E+03 E0= -.24615234E+03  d E =0.158383E-01
       N       E                     dE             d eps       ncg     rms          rms(c)
DAV:   1    -0.246150498575E+03   -0.21758E-02   -0.10277E+00  4824   0.189E+00    0.190E-01
RMM:   2    -0.246151631821E+03   -0.11332E-02   -0.15875E-02  4756   0.233E-01    0.114E-01
RMM:   3    -0.246151628003E+03    0.38179E-05   -0.13942E-03  3885   0.860E-02    0.576E-02
RMM:   4    -0.246151594518E+03    0.33486E-04   -0.41460E-04  3065   0.404E-02
  18 F= -.24615159E+03 E0= -.24615558E+03  d E =0.159335E-01
       N       E                     dE             d eps       ncg     rms          rms(c)
DAV:   1    -0.246149291530E+03    0.23365E-02   -0.19393E+00  4816   0.267E+00    0.279E-01
RMM:   2    -0.246150752033E+03   -0.14605E-02   -0.26657E-02  4818   0.318E-01    0.318E-02
RMM:   3    -0.246150893560E+03   -0.14153E-03   -0.17153E-03  4249   0.112E-01    0.190E-02
RMM:   4    -0.246150912739E+03   -0.19179E-04   -0.32453E-04  2997   0.330E-02
  19 F= -.24615091E+03 E0= -.24615486E+03  d E =0.158029E-01
       N       E                     dE             d eps       ncg     rms          rms(c)
DAV:   1    -0.246146745759E+03    0.41478E-02   -0.10238E+00  4800   0.202E+00    0.178E-01
RMM:   2    -0.246148252624E+03   -0.15069E-02   -0.18609E-02  4767   0.254E-01    0.113E-01
RMM:   3    -0.246148273066E+03   -0.20442E-04   -0.10725E-03  3709   0.890E-02    0.100E-01
RMM:   4    -0.246148147208E+03    0.12586E-03   -0.99208E-04  3708   0.544E-02    0.372E-02
RMM:   5    -0.246148131188E+03    0.16020E-04   -0.11893E-04  2711   0.310E-02
  20 F= -.24614813E+03 E0= -.24615210E+03  d E =0.158625E-01
       N       E                     dE             d eps       ncg     rms          rms(c)
DAV:   1    -0.246146145285E+03    0.20019E-02   -0.21796E+00  4800   0.286E+00    0.250E-01
RMM:   2    -0.246147821339E+03   -0.16761E-02   -0.30251E-02  4795   0.337E-01    0.454E-02
RMM:   3    -0.246147972307E+03   -0.15097E-03   -0.17307E-03  4192   0.114E-01    0.290E-02
RMM:   4    -0.246148012711E+03   -0.40404E-04   -0.40496E-04  3119   0.358E-02
  21 F= -.24614801E+03 E0= -.24615198E+03  d E =0.158600E-01
       N       E                     dE             d eps       ncg     rms          rms(c)
DAV:   1    -0.246147786250E+03    0.18606E-03   -0.10657E+00  4800   0.201E+00    0.172E-01
RMM:   2    -0.246148891978E+03   -0.11057E-02   -0.16120E-02  4754   0.245E-01    0.111E-01
RMM:   3    -0.246148850715E+03    0.41263E-04   -0.10627E-03  3818   0.904E-02    0.838E-02
RMM:   4    -0.246148796675E+03    0.54040E-04   -0.10351E-03  3853   0.514E-02    0.666E-02
RMM:   5    -0.246148734607E+03    0.62067E-04   -0.15988E-04  2807   0.314E-02
  22 F= -.24614873E+03 E0= -.24615267E+03  d E =0.157573E-01
       N       E                     dE             d eps       ncg     rms          rms(c)
DAV:   1    -0.246146936409E+03    0.18603E-02   -0.21535E+00  4800   0.284E+00    0.244E-01
RMM:   2    -0.246148446073E+03   -0.15097E-02   -0.31581E-02  4792   0.351E-01    0.355E-02
RMM:   3    -0.246148641590E+03   -0.19552E-03   -0.19466E-03  4309   0.122E-01    0.281E-02
RMM:   4    -0.246148675559E+03   -0.33969E-04   -0.41584E-04  3140   0.368E-02
  23 F= -.24614868E+03 E0= -.24615266E+03  d E =0.159543E-01
       N       E                     dE             d eps       ncg     rms          rms(c)
DAV:   1    -0.246149756058E+03   -0.11145E-02   -0.10579E+00  4800   0.199E+00    0.176E-01
RMM:   2    -0.246150822263E+03   -0.10662E-02   -0.16220E-02  4768   0.263E-01    0.109E-01
RMM:   3    -0.246150788776E+03    0.33487E-04   -0.13035E-03  4095   0.904E-02    0.737E-02
RMM:   4    -0.246150675925E+03    0.11285E-03   -0.52289E-04  3234   0.516E-02    0.312E-02
RMM:   5    -0.246150684946E+03   -0.90209E-05   -0.10744E-04  2673   0.288E-02
  24 F= -.24615068E+03 E0= -.24615466E+03  d E =0.158950E-01
       N       E                     dE             d eps       ncg     rms          rms(c)
DAV:   1    -0.246148585797E+03    0.20901E-02   -0.20303E+00  4800   0.286E+00    0.256E-01
RMM:   2    -0.246150006840E+03   -0.14210E-02   -0.28762E-02  4801   0.396E-01    0.403E-02
RMM:   3    -0.246150163887E+03   -0.15705E-03   -0.22157E-03  4859   0.113E-01    0.246E-02
RMM:   4    -0.246150178539E+03   -0.14651E-04   -0.25314E-04  2946   0.313E-02
  25 F= -.24615018E+03 E0= -.24615411E+03  d E =0.157228E-01
       N       E                     dE             d eps       ncg     rms          rms(c)
DAV:   1    -0.246145542887E+03    0.46210E-02   -0.10573E+00  4800   0.203E+00    0.183E-01
RMM:   2    -0.246147218896E+03   -0.16760E-02   -0.22631E-02  4782   0.295E-01    0.127E-01
RMM:   3    -0.246147237379E+03   -0.18483E-04   -0.14338E-03  4109   0.995E-02    0.113E-01
RMM:   4    -0.246147092210E+03    0.14517E-03   -0.11304E-03  3778   0.538E-02    0.762E-02
RMM:   5    -0.246147031980E+03    0.60230E-04   -0.15632E-04  2795   0.346E-02
  26 F= -.24614703E+03 E0= -.24615098E+03  d E =0.158029E-01
       N       E                     dE             d eps       ncg     rms          rms(c)
DAV:   1    -0.246146704862E+03    0.38735E-03   -0.22210E+00  4800   0.268E+00    0.286E-01
RMM:   2    -0.246147884994E+03   -0.11801E-02   -0.40645E-02  4799   0.376E-01    0.480E-02
RMM:   3    -0.246148110554E+03   -0.22556E-03   -0.24201E-03  4305   0.135E-01    0.271E-02
RMM:   4    -0.246148205432E+03   -0.94878E-04   -0.57460E-04  3332   0.414E-02
  27 F= -.24614821E+03 E0= -.24615217E+03  d E =0.158410E-01
       N       E                     dE             d eps       ncg     rms          rms(c)
DAV:   1    -0.246145911007E+03    0.21995E-02   -0.11104E+00  4808   0.189E+00    0.204E-01
RMM:   2    -0.246146884851E+03   -0.97384E-03   -0.19093E-02  4759   0.247E-01    0.127E-01
RMM:   3    -0.246146826779E+03    0.58072E-04   -0.11132E-03  3610   0.863E-02    0.908E-02
RMM:   4    -0.246146713792E+03    0.11299E-03   -0.92472E-04  3531   0.483E-02    0.353E-02
RMM:   5    -0.246146697096E+03    0.16696E-04   -0.90305E-05  2675   0.290E-02
  28 F= -.24614670E+03 E0= -.24615066E+03  d E =0.158564E-01
       N       E                     dE             d eps       ncg     rms          rms(c)
DAV:   1    -0.246144948557E+03    0.17652E-02   -0.22231E+00  4800   0.268E+00    0.267E-01
RMM:   2    -0.246146784931E+03   -0.18364E-02   -0.32832E-02  4784   0.318E-01    0.326E-02
RMM:   3    -0.246146938726E+03   -0.15380E-03   -0.17407E-03  4012   0.109E-01    0.212E-02
RMM:   4    -0.246146973606E+03   -0.34880E-04   -0.39803E-04  3038   0.366E-02
  29 F= -.24614697E+03 E0= -.24615091E+03  d E =0.157394E-01
       N       E                     dE             d eps       ncg     rms          rms(c)
DAV:   1    -0.246151394420E+03   -0.44557E-02   -0.10408E+00  4800   0.193E+00    0.189E-01
RMM:   2    -0.246152193489E+03   -0.79907E-03   -0.12521E-02  4745   0.212E-01    0.104E-01
RMM:   3    -0.246152175936E+03    0.17553E-04   -0.11025E-03  3889   0.816E-02    0.477E-02
RMM:   4    -0.246152122449E+03    0.53487E-04   -0.29003E-04  2962   0.387E-02
  30 F= -.24615212E+03 E0= -.24615611E+03  d E =0.159501E-01
       N       E                     dE             d eps       ncg     rms          rms(c)
DAV:   1    -0.246150339419E+03    0.18365E-02   -0.19698E+00  4800   0.271E+00    0.265E-01
RMM:   2    -0.246151376307E+03   -0.10369E-02   -0.21304E-02  4791   0.304E-01    0.308E-02
RMM:   3    -0.246151513064E+03   -0.13676E-03   -0.14347E-03  4248   0.992E-02    0.184E-02
RMM:   4    -0.246151532829E+03   -0.19765E-04   -0.25614E-04  2943   0.316E-02
  31 F= -.24615153E+03 E0= -.24615546E+03  d E =0.157039E-01
       N       E                     dE             d eps       ncg     rms          rms(c)
DAV:   1    -0.246146962971E+03    0.45501E-02   -0.10103E+00  4800   0.197E+00    0.172E-01
RMM:   2    -0.246148435634E+03   -0.14727E-02   -0.17413E-02  4772   0.249E-01    0.119E-01
RMM:   3    -0.246148428570E+03    0.70637E-05   -0.10357E-03  3686   0.872E-02    0.105E-01
RMM:   4    -0.246148205279E+03    0.22329E-03   -0.10039E-03  3914   0.563E-02    0.471E-02
RMM:   5    -0.246148218041E+03   -0.12762E-04   -0.11432E-04  2702   0.293E-02
  32 F= -.24614822E+03 E0= -.24615218E+03  d E =0.158619E-01
       N       E                     dE             d eps       ncg     rms          rms(c)
DAV:   1    -0.246145978580E+03    0.22267E-02   -0.21576E+00  4800   0.273E+00    0.261E-01
RMM:   2    -0.246147634657E+03   -0.16561E-02   -0.35760E-02  4795   0.354E-01    0.422E-02
RMM:   3    -0.246147784184E+03   -0.14953E-03   -0.21290E-03  4290   0.123E-01    0.226E-02
RMM:   4    -0.246147795732E+03   -0.11548E-04   -0.48724E-04  3183   0.392E-02
  33 F= -.24614780E+03 E0= -.24615175E+03  d E =0.158228E-01
       N       E                     dE             d eps       ncg     rms          rms(c)
DAV:   1    -0.246147430819E+03    0.35336E-03   -0.10888E+00  4800   0.198E+00    0.188E-01
RMM:   2    -0.246148348800E+03   -0.91798E-03   -0.17644E-02  4760   0.250E-01    0.109E-01
RMM:   3    -0.246148304014E+03    0.44786E-04   -0.10333E-03  3656   0.851E-02    0.795E-02
RMM:   4    -0.246148206742E+03    0.97272E-04   -0.69425E-04  3413   0.484E-02
  34 F= -.24614821E+03 E0= -.24615214E+03  d E =0.157520E-01
       N       E                     dE             d eps       ncg     rms          rms(c)
DAV:   1    -0.246146326749E+03    0.19773E-02   -0.21715E+00  4800   0.278E+00    0.238E-01
RMM:   2    -0.246148483865E+03   -0.21571E-02   -0.37791E-02  4794   0.370E-01    0.419E-02
RMM:   3    -0.246148714575E+03   -0.23071E-03   -0.22978E-03  4342   0.131E-01    0.284E-02
RMM:   4    -0.246148750416E+03   -0.35841E-04   -0.52445E-04  3236   0.415E-02
  35 F= -.24614875E+03 E0= -.24615269E+03  d E =0.157729E-01
       N       E                     dE             d eps       ncg     rms          rms(c)
DAV:   1    -0.246149877553E+03   -0.11630E-02   -0.10386E+00  4800   0.200E+00    0.177E-01
RMM:   2    -0.246150793691E+03   -0.91614E-03   -0.15988E-02  4781   0.271E-01    0.112E-01
RMM:   3    -0.246150778097E+03    0.15594E-04   -0.12852E-03  4047   0.820E-02    0.705E-02
RMM:   4    -0.246150611526E+03    0.16657E-03   -0.54670E-04  3235   0.506E-02    0.303E-02
RMM:   5    -0.246150654085E+03   -0.42559E-04   -0.10943E-04  2671   0.315E-02
  36 F= -.24615065E+03 E0= -.24615464E+03  d E =0.159568E-01
       N       E                     dE             d eps       ncg     rms          rms(c)
DAV:   1    -0.246149221272E+03    0.13903E-02   -0.20179E+00  4800   0.278E+00    0.255E-01
RMM:   2    -0.246150665334E+03   -0.14441E-02   -0.27711E-02  4795   0.375E-01    0.360E-02
RMM:   3    -0.246150803619E+03   -0.13828E-03   -0.19040E-03  4677   0.105E-01    0.195E-02
RMM:   4    -0.246150815734E+03   -0.12115E-04   -0.24379E-04  2915   0.311E-02
  37 F= -.24615082E+03 E0= -.24615474E+03  d E =0.156917E-01
       N       E                     dE             d eps       ncg     rms          rms(c)
DAV:   1    -0.246152197311E+03   -0.13937E-02   -0.58611E-01  4800   0.150E+00    0.152E-01
RMM:   2    -0.246152651614E+03   -0.45430E-03   -0.80480E-03  4695   0.185E-01    0.597E-02
RMM:   3    -0.246152730436E+03   -0.78822E-04   -0.58554E-04  3425   0.645E-02
  38 F= -.24615273E+03 E0= -.24615668E+03  d E =0.157828E-01
       N       E                     dE             d eps       ncg     rms          rms(c)
DAV:   1    -0.246152243064E+03    0.40855E-03   -0.33071E-01  4840   0.883E-01    0.164E-01
RMM:   2    -0.246152321182E+03   -0.78118E-04   -0.32862E-03  4381   0.986E-02    0.253E-02
RMM:   3    -0.246152451532E+03   -0.13035E-03   -0.19103E-04  2863   0.314E-02    0.162E-02
RMM:   4    -0.246152495982E+03   -0.44451E-04   -0.65851E-05  2677   0.204E-02
  39 F= -.24615250E+03 E0= -.24615645E+03  d E =0.158227E-01
       N       E                     dE             d eps       ncg     rms          rms(c)
DAV:   1    -0.246150102409E+03    0.23491E-02   -0.17505E-01  4992   0.647E-01    0.172E-01
RMM:   2    -0.246149976012E+03    0.12640E-03   -0.36996E-03  3937   0.100E-01    0.975E-02
RMM:   3    -0.246149886923E+03    0.89090E-04   -0.79541E-04  3383   0.470E-02
  40 F= -.24614989E+03 E0= -.24615379E+03  d E =0.156225E-01
       N       E                     dE             d eps       ncg     rms          rms(c)
DAV:   1    -0.246150773951E+03   -0.79794E-03   -0.37096E-01  4960   0.950E-01    0.274E-01
RMM:   2    -0.246149778428E+03    0.99552E-03   -0.13280E-02  4673   0.184E-01    0.402E-02
RMM:   3    -0.246149869209E+03   -0.90781E-04   -0.66517E-04  3302   0.572E-02
  41 F= -.24614987E+03 E0= -.24615383E+03  d E =0.158287E-01
       N       E                     dE             d eps       ncg     rms          rms(c)
DAV:   1    -0.246152964742E+03   -0.31863E-02   -0.17451E-01  4896   0.642E-01    0.163E-01
RMM:   2    -0.246152788482E+03    0.17626E-03   -0.37430E-03  4041   0.977E-02    0.615E-02
RMM:   3    -0.246152797699E+03   -0.92168E-05   -0.21554E-04  2862   0.359E-02
  42 F= -.24615280E+03 E0= -.24615677E+03  d E =0.158747E-01
       N       E                     dE             d eps       ncg     rms          rms(c)
DAV:   1    -0.246152291315E+03    0.49717E-03   -0.32819E-01  4832   0.881E-01    0.161E-01
RMM:   2    -0.246152586532E+03   -0.29522E-03   -0.31042E-03  3973   0.959E-02    0.374E-02
RMM:   3    -0.246152582389E+03    0.41424E-05   -0.16183E-04  2765   0.361E-02
  43 F= -.24615258E+03 E0= -.24615654E+03  d E =0.158192E-01
       N       E                     dE             d eps       ncg     rms          rms(c)
DAV:   1    -0.246152495865E+03    0.90667E-04   -0.16586E-01  4936   0.692E-01    0.122E-01
RMM:   2    -0.246152603751E+03   -0.10789E-03   -0.17279E-03  3702   0.711E-02    0.655E-02
RMM:   3    -0.246152571503E+03    0.32248E-04   -0.25029E-04  2907   0.311E-02
  44 F= -.24615257E+03 E0= -.24615653E+03  d E =0.158159E-01
       N       E                     dE             d eps       ncg     rms          rms(c)
DAV:   1    -0.246152134877E+03    0.46887E-03   -0.33157E-01  4896   0.949E-01    0.184E-01
RMM:   2    -0.246152165529E+03   -0.30652E-04   -0.42521E-03  4294   0.111E-01    0.250E-02
RMM:   3    -0.246152153665E+03    0.11864E-04   -0.18233E-04  2853   0.375E-02
  45 F= -.24615215E+03 E0= -.24615612E+03  d E =0.158546E-01
       N       E                     dE             d eps       ncg     rms          rms(c)
DAV:   1    -0.246152642890E+03   -0.47736E-03   -0.16610E-01  4944   0.676E-01    0.132E-01
RMM:   2    -0.246152609316E+03    0.33573E-04   -0.17225E-03  3821   0.743E-02    0.622E-02
RMM:   3    -0.246152652302E+03   -0.42985E-04   -0.29813E-04  2981   0.368E-02
  46 F= -.24615265E+03 E0= -.24615661E+03  d E =0.158256E-01
       N       E                     dE             d eps       ncg     rms          rms(c)
DAV:   1    -0.246152399167E+03    0.21015E-03   -0.32985E-01  4832   0.947E-01    0.166E-01
RMM:   2    -0.246152603738E+03   -0.20457E-03   -0.33030E-03  4087   0.960E-02    0.198E-02
RMM:   3    -0.246152601818E+03    0.19204E-05   -0.14010E-04  2783   0.315E-02
  47 F= -.24615260E+03 E0= -.24615655E+03  d E =0.158103E-01
       N       E                     dE             d eps       ncg     rms          rms(c)
DAV:   1    -0.246150675059E+03    0.19287E-02   -0.16765E-01  4936   0.679E-01    0.139E-01
RMM:   2    -0.246150728649E+03   -0.53590E-04   -0.21805E-03  3905   0.824E-02    0.862E-02
RMM:   3    -0.246150634773E+03    0.93876E-04   -0.42817E-04  3109   0.435E-02
  48 F= -.24615063E+03 E0= -.24615463E+03  d E =0.159622E-01
       N       E                     dE             d eps       ncg     rms          rms(c)
DAV:   1    -0.246150927408E+03   -0.19876E-03   -0.36284E-01  5000   0.100E+00    0.271E-01
RMM:   2    -0.246150177681E+03    0.74973E-03   -0.11835E-02  4680   0.182E-01    0.374E-02
RMM:   3    -0.246150184365E+03   -0.66836E-05   -0.63358E-04  3353   0.538E-02
  49 F= -.24615018E+03 E0= -.24615415E+03  d E =0.158510E-01
       N       E                     dE             d eps       ncg     rms          rms(c)
DAV:   1    -0.246152372208E+03   -0.21945E-02   -0.17367E-01  5024   0.714E-01    0.166E-01
RMM:   2    -0.246152233147E+03    0.13906E-03   -0.43599E-03  4257   0.112E-01    0.719E-02
RMM:   3    -0.246152207778E+03    0.25369E-04   -0.64321E-04  3241   0.451E-02
  50 F= -.24615221E+03 E0= -.24615617E+03  d E =0.158331E-01
       N       E                     dE             d eps       ncg     rms          rms(c)
DAV:   1    -0.246151950173E+03    0.28297E-03   -0.34050E-01  4952   0.913E-01    0.205E-01
RMM:   2    -0.246151816894E+03    0.13328E-03   -0.57459E-03  4373   0.117E-01    0.303E-02
RMM:   3    -0.246151799382E+03    0.17512E-04   -0.24606E-04  2922   0.397E-02
  51 F= -.24615180E+03 E0= -.24615576E+03  d E =0.158249E-01
       N       E                     dE             d eps       ncg     rms          rms(c)
DAV:   1    -0.246152519388E+03   -0.70249E-03   -0.16612E-01  4848   0.637E-01    0.133E-01
RMM:   2    -0.246152545904E+03   -0.26516E-04   -0.19004E-03  3649   0.723E-02    0.601E-02
RMM:   3    -0.246152536505E+03    0.93992E-05   -0.23925E-04  2895   0.333E-02
  52 F= -.24615254E+03 E0= -.24615649E+03  d E =0.158191E-01
       N       E                     dE             d eps       ncg     rms          rms(c)
DAV:   1    -0.246152512513E+03    0.33392E-04   -0.32831E-01  4864   0.891E-01    0.162E-01
RMM:   2    -0.246152781161E+03   -0.26865E-03   -0.27088E-03  3841   0.860E-02    0.185E-02
RMM:   3    -0.246152777954E+03    0.32069E-05   -0.13999E-04  2768   0.307E-02
  53 F= -.24615278E+03 E0= -.24615675E+03  d E =0.158927E-01
       N       E                     dE             d eps       ncg     rms          rms(c)
DAV:   1    -0.246150905276E+03    0.18759E-02   -0.16930E-01  4944   0.642E-01    0.153E-01
RMM:   2    -0.246150766362E+03    0.13891E-03   -0.25741E-03  3833   0.837E-02    0.797E-02
RMM:   3    -0.246150767210E+03   -0.84871E-06   -0.68878E-04  3250   0.410E-02
  54 F= -.24615077E+03 E0= -.24615474E+03  d E =0.158951E-01
       N       E                     dE             d eps       ncg     rms          rms(c)
DAV:   1    -0.246151168261E+03   -0.40190E-03   -0.35550E-01  4832   0.935E-01    0.258E-01
RMM:   2    -0.246150451214E+03    0.71705E-03   -0.94671E-03  4427   0.144E-01    0.268E-02
RMM:   3    -0.246150486313E+03   -0.35100E-04   -0.57909E-04  3162   0.490E-02
  55 F= -.24615049E+03 E0= -.24615444E+03  d E =0.158223E-01
       N       E                     dE             d eps       ncg     rms          rms(c)
DAV:   1    -0.246152275457E+03   -0.18242E-02   -0.17495E-01  4896   0.698E-01    0.175E-01
RMM:   2    -0.246151915245E+03    0.36021E-03   -0.42468E-03  4269   0.116E-01    0.841E-02
RMM:   3    -0.246151841548E+03    0.73697E-04   -0.93802E-04  3458   0.469E-02
  56 F= -.24615184E+03 E0= -.24615580E+03  d E =0.158515E-01
       N       E                     dE             d eps       ncg     rms          rms(c)
DAV:   1    -0.246152328208E+03   -0.41296E-03   -0.33792E-01  4816   0.944E-01    0.213E-01
RMM:   2    -0.246151986838E+03    0.34137E-03   -0.76465E-03  4571   0.140E-01    0.450E-02
RMM:   3    -0.246151977043E+03    0.97954E-05   -0.31119E-04  2966   0.503E-02
  57 F= -.24615198E+03 E0= -.24615594E+03  d E =0.158530E-01
       N       E                     dE             d eps       ncg     rms          rms(c)
DAV:   1    -0.246152196218E+03   -0.20938E-03   -0.17032E-01  4888   0.670E-01    0.171E-01
RMM:   2    -0.246151809495E+03    0.38672E-03   -0.37828E-03  4284   0.109E-01    0.641E-02
RMM:   3    -0.246151828753E+03   -0.19257E-04   -0.43116E-04  3072   0.414E-02
  58 F= -.24615183E+03 E0= -.24615579E+03  d E =0.158495E-01
       N       E                     dE             d eps       ncg     rms          rms(c)
DAV:   1    -0.246152411416E+03   -0.60192E-03   -0.33288E-01  4800   0.934E-01    0.193E-01
RMM:   2    -0.246152269642E+03    0.14177E-03   -0.49855E-03  4434   0.122E-01    0.326E-02
RMM:   3    -0.246152320433E+03   -0.50791E-04   -0.27146E-04  2950   0.427E-02
  59 F= -.24615232E+03 E0= -.24615630E+03  d E =0.159146E-01
       N       E                     dE             d eps       ncg     rms          rms(c)
DAV:   1    -0.246151483736E+03    0.78591E-03   -0.16111E-01  4920   0.648E-01    0.112E-01
RMM:   2    -0.246151651437E+03   -0.16770E-03   -0.14370E-03  3730   0.721E-02    0.687E-02
RMM:   3    -0.246151640248E+03    0.11189E-04   -0.19419E-04  2825   0.372E-02
  60 F= -.24615164E+03 E0= -.24615561E+03  d E =0.158771E-01
       N       E                     dE             d eps       ncg     rms          rms(c)
DAV:   1    -0.246152090224E+03   -0.43879E-03   -0.32725E-01  4912   0.947E-01    0.215E-01
RMM:   2    -0.246151831283E+03    0.25894E-03   -0.69480E-03  4521   0.150E-01    0.255E-02
RMM:   3    -0.246151824891E+03    0.63922E-05   -0.35630E-04  2981   0.495E-02
  61 F= -.24615182E+03 E0= -.24615579E+03  d E =0.158472E-01
       N       E                     dE             d eps       ncg     rms          rms(c)
DAV:   1    -0.246150561888E+03    0.12694E-02   -0.17015E-01  4952   0.736E-01    0.167E-01
RMM:   2    -0.246150547159E+03    0.14730E-04   -0.44188E-03  4513   0.124E-01    0.954E-02
RMM:   3    -0.246150452070E+03    0.95089E-04   -0.85327E-04  3438   0.503E-02
  62 F= -.24615045E+03 E0= -.24615439E+03  d E =0.157591E-01
       N       E                     dE             d eps       ncg     rms          rms(c)
DAV:   1    -0.246151633739E+03   -0.10866E-02   -0.35462E-01  4848   0.956E-01    0.260E-01
RMM:   2    -0.246150773694E+03    0.86005E-03   -0.10488E-02  4699   0.166E-01    0.460E-02
RMM:   3    -0.246150767926E+03    0.57680E-05   -0.55284E-04  3325   0.627E-02
  63 F= -.24615077E+03 E0= -.24615472E+03  d E =0.158207E-01
       N       E                     dE             d eps       ncg     rms          rms(c)
DAV:   1    -0.246152173254E+03   -0.13996E-02   -0.16456E-01  4888   0.654E-01    0.123E-01
RMM:   2    -0.246152225017E+03   -0.51763E-04   -0.15883E-03  3852   0.722E-02    0.606E-02
RMM:   3    -0.246152259392E+03   -0.34375E-04   -0.16610E-04  2804   0.322E-02
  64 F= -.24615226E+03 E0= -.24615621E+03  d E =0.158193E-01
       N       E                     dE             d eps       ncg     rms          rms(c)
DAV:   1    -0.246151854341E+03    0.37068E-03   -0.33954E-01  4880   0.934E-01    0.205E-01
RMM:   2    -0.246151687171E+03    0.16717E-03   -0.47261E-03  4450   0.118E-01    0.255E-02
RMM:   3    -0.246151710432E+03   -0.23261E-04   -0.21167E-04  2825   0.409E-02
  65 F= -.24615171E+03 E0= -.24615567E+03  d E =0.158226E-01
       N       E                     dE             d eps       ncg     rms          rms(c)
DAV:   1    -0.246152946815E+03   -0.12596E-02   -0.16838E-01  4912   0.656E-01    0.146E-01
RMM:   2    -0.246152842964E+03    0.10385E-03   -0.23039E-03  4067   0.850E-02    0.625E-02
RMM:   3    -0.246152856920E+03   -0.13956E-04   -0.19697E-04  2809   0.348E-02
  66 F= -.24615286E+03 E0= -.24615681E+03  d E =0.158119E-01
       N       E                     dE             d eps       ncg     rms          rms(c)
DAV:   1    -0.246152256912E+03    0.58605E-03   -0.32303E-01  4856   0.920E-01    0.178E-01
RMM:   2    -0.246152453698E+03   -0.19679E-03   -0.34070E-03  4332   0.105E-01    0.219E-02
RMM:   3    -0.246152468505E+03   -0.14806E-04   -0.16712E-04  2777   0.366E-02
  67 F= -.24615247E+03 E0= -.24615643E+03  d E =0.158439E-01
       N       E                     dE             d eps       ncg     rms          rms(c)
DAV:   1    -0.246152339634E+03    0.11406E-03   -0.16164E-01  4952   0.659E-01    0.120E-01
RMM:   2    -0.246152453874E+03   -0.11424E-03   -0.16280E-03  3725   0.709E-02    0.575E-02
RMM:   3    -0.246152475479E+03   -0.21604E-04   -0.18317E-04  2796   0.334E-02
  68 F= -.24615248E+03 E0= -.24615645E+03  d E =0.159003E-01
       N       E                     dE             d eps       ncg     rms          rms(c)
DAV:   1    -0.246152471201E+03   -0.17326E-04   -0.32508E-01  4808   0.840E-01    0.163E-01
RMM:   2    -0.246152608513E+03   -0.13731E-03   -0.27004E-03  4074   0.883E-02    0.217E-02
RMM:   3    -0.246152650675E+03   -0.42161E-04   -0.14303E-04  2772   0.323E-02
  69 F= -.24615265E+03 E0= -.24615661E+03  d E =0.158532E-01
       N       E                     dE             d eps       ncg     rms          rms(c)
DAV:   1    -0.246150682398E+03    0.19261E-02   -0.17317E-01  4976   0.626E-01    0.176E-01
RMM:   2    -0.246150486067E+03    0.19633E-03   -0.32397E-03  4130   0.965E-02    0.955E-02
RMM:   3    -0.246150387068E+03    0.98999E-04   -0.70422E-04  3235   0.443E-02
  70 F= -.24615039E+03 E0= -.24615433E+03  d E =0.157622E-01
       N       E                     dE             d eps       ncg     rms          rms(c)
DAV:   1    -0.246150401182E+03    0.84886E-04   -0.35337E-01  4856   0.894E-01    0.275E-01
RMM:   2    -0.246149288984E+03    0.11122E-02   -0.10423E-02  4621   0.161E-01    0.321E-02
RMM:   3    -0.246149300118E+03   -0.11134E-04   -0.57558E-04  3130   0.537E-02
  71 F= -.24614930E+03 E0= -.24615327E+03  d E =0.158636E-01
       N       E                     dE             d eps       ncg     rms          rms(c)
DAV:   1    -0.246153290618E+03   -0.40016E-02   -0.16215E-01  4832   0.622E-01    0.149E-01
RMM:   2    -0.246153165453E+03    0.12517E-03   -0.27134E-03  4036   0.896E-02    0.620E-02
RMM:   3    -0.246153175745E+03   -0.10291E-04   -0.24574E-04  2870   0.365E-02
  72 F= -.24615318E+03 E0= -.24615714E+03  d E =0.158537E-01
       N       E                     dE             d eps       ncg     rms          rms(c)
DAV:   1    -0.246152247030E+03    0.91842E-03   -0.30946E-01  4888   0.852E-01    0.174E-01
RMM:   2    -0.246152473193E+03   -0.22616E-03   -0.35466E-03  4280   0.108E-01    0.220E-02
RMM:   3    -0.246152478073E+03   -0.48795E-05   -0.16096E-04  2792   0.357E-02
  73 F= -.24615248E+03 E0= -.24615644E+03  d E =0.158351E-01
       N       E                     dE             d eps       ncg     rms          rms(c)
DAV:   1    -0.246150655682E+03    0.18175E-02   -0.16317E-01  4944   0.674E-01    0.151E-01
RMM:   2    -0.246150725972E+03   -0.70290E-04   -0.30894E-03  4165   0.974E-02    0.903E-02
RMM:   3    -0.246150621064E+03    0.10491E-03   -0.72074E-04  3259   0.446E-02    0.505E-02
RMM:   4    -0.246150566053E+03    0.55011E-04   -0.15367E-04  2820   0.329E-02
  74 F= -.24615057E+03 E0= -.24615453E+03  d E =0.158487E-01
       N       E                     dE             d eps       ncg     rms          rms(c)
DAV:   1    -0.246152016119E+03   -0.13951E-02   -0.34138E-01  4848   0.924E-01    0.250E-01
RMM:   2    -0.246151232265E+03    0.78385E-03   -0.89009E-03  4616   0.149E-01    0.209E-02
RMM:   3    -0.246151258750E+03   -0.26485E-04   -0.38843E-04  3022   0.512E-02
  75 F= -.24615126E+03 E0= -.24615522E+03  d E =0.158536E-01
       N       E                     dE             d eps       ncg     rms          rms(c)
DAV:   1    -0.246152966821E+03   -0.17346E-02   -0.17121E-01  4904   0.660E-01    0.178E-01
RMM:   2    -0.246152552695E+03    0.41413E-03   -0.39855E-03  4272   0.102E-01    0.610E-02
RMM:   3    -0.246152571500E+03   -0.18805E-04   -0.34829E-04  2990   0.401E-02
  76 F= -.24615257E+03 E0= -.24615651E+03  d E =0.157487E-01
       N       E                     dE             d eps       ncg     rms          rms(c)
DAV:   1    -0.246152157424E+03    0.39527E-03   -0.32641E-01  4808   0.896E-01    0.180E-01
RMM:   2    -0.246152170243E+03   -0.12819E-04   -0.41398E-03  4335   0.108E-01    0.231E-02
RMM:   3    -0.246152173707E+03   -0.34641E-05   -0.19520E-04  2819   0.382E-02
  77 F= -.24615217E+03 E0= -.24615614E+03  d E =0.158752E-01
       N       E                     dE             d eps       ncg     rms          rms(c)
DAV:   1    -0.246152192386E+03   -0.22143E-04   -0.15677E-01  4856   0.633E-01    0.114E-01
RMM:   2    -0.246152341145E+03   -0.14876E-03   -0.15489E-03  3765   0.708E-02    0.688E-02
RMM:   3    -0.246152314852E+03    0.26292E-04   -0.18474E-04  2789   0.324E-02
  78 F= -.24615231E+03 E0= -.24615626E+03  d E =0.157689E-01
       N       E                     dE             d eps       ncg     rms          rms(c)
DAV:   1    -0.246152006811E+03    0.33433E-03   -0.32461E-01  4800   0.912E-01    0.203E-01
RMM:   2    -0.246151976711E+03    0.30100E-04   -0.48431E-03  4411   0.119E-01    0.211E-02
RMM:   3    -0.246151989170E+03   -0.12459E-04   -0.20506E-04  2809   0.377E-02
  79 F= -.24615199E+03 E0= -.24615595E+03  d E =0.158629E-01
       N       E                     dE             d eps       ncg     rms          rms(c)
DAV:   1    -0.246147237116E+03    0.47396E-02   -0.63016E-01  4816   0.137E+00    0.163E-01
RMM:   2    -0.246147945280E+03   -0.70816E-03   -0.98273E-03  4520   0.164E-01    0.123E-01
RMM:   3    -0.246147789105E+03    0.15617E-03   -0.51211E-04  3123   0.520E-02    0.846E-02
RMM:   4    -0.246147630543E+03    0.15856E-03   -0.66566E-04  3269   0.426E-02    0.243E-02
RMM:   5    -0.246147634341E+03   -0.37980E-05   -0.70711E-05  2635   0.247E-02
  80 F= -.24614763E+03 E0= -.24615158E+03  d E =0.157957E-01
       N       E                     dE             d eps       ncg     rms          rms(c)
DAV:   1    -0.246147559812E+03    0.70731E-04   -0.22063E+00  4808   0.247E+00    0.273E-01
RMM:   2    -0.246148272680E+03   -0.71287E-03   -0.28735E-02  4732   0.272E-01    0.314E-02
RMM:   3    -0.246148372314E+03   -0.99634E-04   -0.10789E-03  3421   0.789E-02    0.176E-02
RMM:   4    -0.246148391121E+03   -0.18807E-04   -0.22779E-04  2868   0.302E-02
  81 F= -.24614839E+03 E0= -.24615236E+03  d E =0.158604E-01
       N       E                     dE             d eps       ncg     rms          rms(c)
DAV:   1    -0.246147372547E+03    0.99977E-03   -0.11208E+00  4800   0.172E+00    0.195E-01
RMM:   2    -0.246147824299E+03   -0.45175E-03   -0.11228E-02  4473   0.175E-01    0.122E-01
RMM:   3    -0.246147604001E+03    0.22030E-03   -0.10018E-03  3361   0.562E-02    0.626E-02
RMM:   4    -0.246147555192E+03    0.48809E-04   -0.30001E-04  2993   0.376E-02
  82 F= -.24614756E+03 E0= -.24615152E+03  d E =0.158464E-01
       N       E                     dE             d eps       ncg     rms          rms(c)
DAV:   1    -0.246146727226E+03    0.87678E-03   -0.22277E+00  4800   0.246E+00    0.268E-01
RMM:   2    -0.246147610411E+03   -0.88319E-03   -0.26359E-02  4694   0.256E-01    0.294E-02
RMM:   3    -0.246147696435E+03   -0.86025E-04   -0.97414E-04  3309   0.718E-02
  83 F= -.24614770E+03 E0= -.24615165E+03  d E =0.158014E-01
       N       E                     dE             d eps       ncg     rms          rms(c)
DAV:   1    -0.246147988812E+03   -0.37840E-03   -0.11218E+00  4800   0.174E+00    0.198E-01
RMM:   2    -0.246148615702E+03   -0.62689E-03   -0.12811E-02  4524   0.184E-01    0.130E-01
RMM:   3    -0.246148391183E+03    0.22452E-03   -0.62117E-04  3183   0.527E-02    0.850E-02
RMM:   4    -0.246148226814E+03    0.16437E-03   -0.74893E-04  3302   0.419E-02    0.290E-02
RMM:   5    -0.246148199801E+03    0.27013E-04   -0.86504E-05  2670   0.269E-02
  84 F= -.24614820E+03 E0= -.24615216E+03  d E =0.158334E-01
       N       E                     dE             d eps       ncg     rms          rms(c)
DAV:   1    -0.246147270486E+03    0.95633E-03   -0.21961E+00  4808   0.246E+00    0.286E-01
RMM:   2    -0.246147812391E+03   -0.54191E-03   -0.27752E-02  4711   0.264E-01    0.362E-02
RMM:   3    -0.246147862010E+03   -0.49619E-04   -0.10422E-03  3537   0.767E-02    0.232E-02
RMM:   4    -0.246147861320E+03    0.69043E-06   -0.19974E-04  2828   0.299E-02
  85 F= -.24614786E+03 E0= -.24615183E+03  d E =0.158807E-01
       N       E                     dE             d eps       ncg     rms          rms(c)
DAV:   1    -0.246150194090E+03   -0.23321E-02   -0.67598E-01  4800   0.137E+00    0.200E-01
RMM:   2    -0.246150455891E+03   -0.26180E-03   -0.11715E-02  4400   0.166E-01    0.966E-02
RMM:   3    -0.246150311414E+03    0.14448E-03   -0.83641E-04  3295   0.535E-02    0.475E-02
RMM:   4    -0.246150299687E+03    0.11727E-04   -0.23594E-04  2874   0.322E-02
  86 F= -.24615030E+03 E0= -.24615426E+03  d E =0.158599E-01
       N       E                     dE             d eps       ncg     rms          rms(c)
DAV:   1    -0.246151137885E+03   -0.82647E-03   -0.35890E-01  4912   0.899E-01    0.263E-01
RMM:   2    -0.246150388685E+03    0.74920E-03   -0.99552E-03  4383   0.151E-01    0.372E-02
RMM:   3    -0.246150410433E+03   -0.21748E-04   -0.49867E-04  3087   0.479E-02
  87 F= -.24615041E+03 E0= -.24615436E+03  d E =0.158093E-01
       N       E                     dE             d eps       ncg     rms          rms(c)
DAV:   1    -0.246152815120E+03   -0.24264E-02   -0.17804E-01  4912   0.630E-01    0.184E-01
RMM:   2    -0.246152404200E+03    0.41092E-03   -0.47110E-03  4001   0.104E-01    0.616E-02
RMM:   3    -0.246152436720E+03   -0.32520E-04   -0.35044E-04  2967   0.376E-02
  88 F= -.24615244E+03 E0= -.24615641E+03  d E =0.158957E-01
       N       E                     dE             d eps       ncg     rms          rms(c)
DAV:   1    -0.246152289878E+03    0.11432E-03   -0.33202E-01  4888   0.853E-01    0.177E-01
RMM:   2    -0.246152358837E+03   -0.68958E-04   -0.40561E-03  3971   0.970E-02    0.227E-02
RMM:   3    -0.246152375091E+03   -0.16255E-04   -0.17321E-04  2823   0.343E-02
  89 F= -.24615238E+03 E0= -.24615632E+03  d E =0.157886E-01
       N       E                     dE             d eps       ncg     rms          rms(c)
DAV:   1    -0.246152601660E+03   -0.24282E-03   -0.16273E-01  4816   0.597E-01    0.112E-01
RMM:   2    -0.246152732651E+03   -0.13099E-03   -0.14261E-03  3386   0.586E-02    0.661E-02
RMM:   3    -0.246152720530E+03    0.12121E-04   -0.12534E-04  2760   0.275E-02
  90 F= -.24615272E+03 E0= -.24615667E+03  d E =0.158134E-01
       N       E                     dE             d eps       ncg     rms          rms(c)
DAV:   1    -0.246152156666E+03    0.57599E-03   -0.32422E-01  4816   0.843E-01    0.167E-01
RMM:   2    -0.246152318977E+03   -0.16231E-03   -0.34478E-03  3789   0.897E-02    0.235E-02
RMM:   3    -0.246152324738E+03   -0.57606E-05   -0.14792E-04  2771   0.333E-02
  91 F= -.24615232E+03 E0= -.24615628E+03  d E =0.158312E-01
       N       E                     dE             d eps       ncg     rms          rms(c)
DAV:   1    -0.246152656167E+03   -0.33719E-03   -0.16517E-01  4872   0.604E-01    0.121E-01
RMM:   2    -0.246152725168E+03   -0.69001E-04   -0.15384E-03  3361   0.605E-02    0.627E-02
RMM:   3    -0.246152724315E+03    0.85282E-06   -0.16015E-04  2782   0.273E-02
  92 F= -.24615272E+03 E0= -.24615669E+03  d E =0.158779E-01
       N       E                     dE             d eps       ncg     rms          rms(c)
DAV:   1    -0.246152354246E+03    0.37092E-03   -0.32772E-01  4800   0.765E-01    0.161E-01
RMM:   2    -0.246152558924E+03   -0.20468E-03   -0.27780E-03  3569   0.796E-02    0.234E-02
RMM:   3    -0.246152584441E+03   -0.25518E-04   -0.13261E-04  2715   0.291E-02
  93 F= -.24615258E+03 E0= -.24615654E+03  d E =0.158174E-01
       N       E                     dE             d eps       ncg     rms          rms(c)
DAV:   1    -0.246150412438E+03    0.21465E-02   -0.17563E-01  4920   0.571E-01    0.172E-01
RMM:   2    -0.246150296387E+03    0.11605E-03   -0.33496E-03  3713   0.891E-02    0.105E-01
RMM:   3    -0.246150160992E+03    0.13540E-03   -0.45876E-04  3076   0.420E-02    0.502E-02
RMM:   4    -0.246150138714E+03    0.22277E-04   -0.38799E-04  3025   0.315E-02
  94 F= -.24615014E+03 E0= -.24615409E+03  d E =0.158037E-01
       N       E                     dE             d eps       ncg     rms          rms(c)
DAV:   1    -0.246151138340E+03   -0.97735E-03   -0.36010E-01  5048   0.815E-01    0.273E-01
RMM:   2    -0.246150039743E+03    0.10986E-02   -0.10985E-02  4504   0.148E-01    0.277E-02
RMM:   3    -0.246150112710E+03   -0.72967E-04   -0.49038E-04  3079   0.508E-02
  95 F= -.24615011E+03 E0= -.24615406E+03  d E =0.158059E-01
       N       E                     dE             d eps       ncg     rms          rms(c)
DAV:   1    -0.246153100412E+03   -0.30607E-02   -0.17698E-01  5072   0.579E-01    0.185E-01
RMM:   2    -0.246152687491E+03    0.41292E-03   -0.40829E-03  3821   0.952E-02    0.708E-02
RMM:   3    -0.246152692573E+03   -0.50827E-05   -0.23861E-04  2858   0.365E-02
  96 F= -.24615269E+03 E0= -.24615667E+03  d E =0.158944E-01
       N       E                     dE             d eps       ncg     rms          rms(c)
DAV:   1    -0.246152029536E+03    0.65795E-03   -0.32830E-01  4944   0.772E-01    0.169E-01
RMM:   2    -0.246152141425E+03   -0.11189E-03   -0.36449E-03  3747   0.944E-02    0.310E-02
RMM:   3    -0.246152151836E+03   -0.10411E-04   -0.20593E-04  2816   0.350E-02
  97 F= -.24615215E+03 E0= -.24615612E+03  d E =0.158902E-01
       N       E                     dE             d eps       ncg     rms          rms(c)
DAV:   1    -0.246152653269E+03   -0.51184E-03   -0.16352E-01  4864   0.624E-01    0.120E-01
RMM:   2    -0.246152728590E+03   -0.75321E-04   -0.16795E-03  3479   0.670E-02    0.632E-02
RMM:   3    -0.246152712080E+03    0.16510E-04   -0.15395E-04  2797   0.288E-02
  98 F= -.24615271E+03 E0= -.24615667E+03  d E =0.158488E-01
       N       E                     dE             d eps       ncg     rms          rms(c)
DAV:   1    -0.246152418462E+03    0.31013E-03   -0.32395E-01  4896   0.854E-01    0.157E-01
RMM:   2    -0.246152751233E+03   -0.33277E-03   -0.28687E-03  3927   0.878E-02    0.261E-02
RMM:   3    -0.246152722520E+03    0.28714E-04   -0.14440E-04  2771   0.297E-02
  99 F= -.24615272E+03 E0= -.24615668E+03  d E =0.158460E-01
       N       E                     dE             d eps       ncg     rms          rms(c)
DAV:   1    -0.246152269185E+03    0.48205E-03   -0.16278E-01  4912   0.606E-01    0.112E-01
RMM:   2    -0.246152418510E+03   -0.14933E-03   -0.14263E-03  3493   0.608E-02    0.672E-02
RMM:   3    -0.246152422962E+03   -0.44518E-05   -0.22776E-04  2876   0.310E-02
 100 F= -.24615242E+03 E0= -.24615639E+03  d E =0.158556E-01
       N       E                     dE             d eps       ncg     rms          rms(c)
DAV:   1    -0.246152786875E+03   -0.36837E-03   -0.32492E-01  4848   0.858E-01    0.156E-01
RMM:   2    -0.246153060748E+03   -0.27387E-03   -0.26976E-03  3874   0.858E-02    0.242E-02
RMM:   3    -0.246153062306E+03   -0.15578E-05   -0.14731E-04  2783   0.300E-02
 101 F= -.24615306E+03 E0= -.24615701E+03  d E =0.158040E-01
       N       E                     dE             d eps       ncg     rms          rms(c)
DAV:   1    -0.246150329404E+03    0.27313E-02   -0.17026E-01  4912   0.621E-01    0.161E-01
RMM:   2    -0.246150249810E+03    0.79594E-04   -0.28235E-03  3857   0.857E-02    0.934E-02
RMM:   3    -0.246150137910E+03    0.11190E-03   -0.52705E-04  3084   0.373E-02    0.432E-02
RMM:   4    -0.246150116988E+03    0.20922E-04   -0.11823E-04  2709   0.266E-02
 102 F= -.24615012E+03 E0= -.24615406E+03  d E =0.157673E-01
       N       E                     dE             d eps       ncg     rms          rms(c)
DAV:   1    -0.246150612571E+03   -0.47466E-03   -0.36369E-01  4944   0.913E-01    0.280E-01
RMM:   2    -0.246149664501E+03    0.94807E-03   -0.13036E-02  4493   0.162E-01    0.217E-02
RMM:   3    -0.246149714477E+03   -0.49976E-04   -0.59857E-04  3196   0.508E-02
 103 F= -.24614971E+03 E0= -.24615368E+03  d E =0.158433E-01
