       N       E                     dE             d eps       ncg     rms          rms(c)
DAV:   1     0.351823100465E+04    0.35182E+04   -0.14358E+05 16416   0.117E+03
DAV:   2     0.188591975373E+03   -0.33296E+04   -0.30623E+04 16992   0.446E+02
DAV:   3    -0.244274542584E+03   -0.43287E+03   -0.40280E+03 22192   0.130E+02
DAV:   4    -0.277468777131E+03   -0.33194E+02   -0.30040E+02 23776   0.371E+01
DAV:   5    -0.278550462860E+03   -0.10817E+01   -0.10560E+01 22616   0.570E+00    0.278E+01
RMM:   6    -0.270040935427E+03    0.85095E+01   -0.13883E+01 18320   0.698E+00    0.224E+01
RMM:   7    -0.279319006440E+03   -0.92781E+01   -0.18332E+01 18220   0.760E+00    0.275E+01
RMM:   8    -0.274614557816E+03    0.47044E+01   -0.15322E+01 18245   0.693E+00    0.251E+01
RMM:   9    -0.255514015955E+03    0.19101E+02   -0.16150E+01 16564   0.101E+01    0.127E+01
RMM:  10    -0.254133959025E+03    0.13801E+01   -0.36688E+00 19744   0.338E+00    0.784E+00
RMM:  11    -0.253640404364E+03    0.49355E+00   -0.13436E+00 17127   0.251E+00    0.406E+00
RMM:  12    -0.253518623273E+03    0.12178E+00   -0.74599E-01 17111   0.187E+00    0.252E+00
RMM:  13    -0.253500906459E+03    0.17717E-01   -0.21651E-01 18890   0.951E-01    0.190E+00
RMM:  14    -0.253484826081E+03    0.16080E-01   -0.75273E-02 16712   0.530E-01    0.127E+00
RMM:  15    -0.253474418096E+03    0.10408E-01   -0.71342E-02 16393   0.635E-01    0.784E-01
RMM:  16    -0.253473113474E+03    0.13046E-02   -0.24640E-02 18137   0.328E-01    0.578E-01
RMM:  17    -0.253476816519E+03   -0.37030E-02   -0.10624E-02 16992   0.187E-01    0.393E-01
RMM:  18    -0.253479489285E+03   -0.26728E-02   -0.87713E-03 16498   0.179E-01    0.311E-01
RMM:  19    -0.253478419524E+03    0.10698E-02   -0.41468E-03 16411   0.143E-01    0.170E-01
RMM:  20    -0.253478126291E+03    0.29323E-03   -0.26780E-03 16407   0.110E-01    0.144E-01
RMM:  21    -0.253477680976E+03    0.44532E-03   -0.13375E-03 16782   0.754E-02    0.974E-02
RMM:  22    -0.253477358466E+03    0.32251E-03   -0.62636E-04 16463   0.549E-02    0.502E-02
RMM:  23    -0.253477201440E+03    0.15703E-03   -0.44989E-04 16578   0.431E-02    0.360E-02
RMM:  24    -0.253477316809E+03   -0.11537E-03   -0.56451E-04 16367   0.480E-02    0.223E-02
RMM:  25    -0.253477452650E+03   -0.13584E-03   -0.21860E-04 16972   0.262E-02    0.177E-02
RMM:  26    -0.253477591061E+03   -0.13841E-03   -0.16348E-04 16327   0.241E-02    0.113E-02
RMM:  27    -0.253477708817E+03   -0.11776E-03   -0.15310E-04 16287   0.241E-02    0.102E-02
RMM:  28    -0.253477741385E+03   -0.32568E-04   -0.33022E-05 16553   0.935E-03    0.770E-03
RMM:  29    -0.253477765300E+03   -0.23915E-04   -0.20365E-05 15259   0.888E-03    0.325E-03
RMM:  30    -0.253477776603E+03   -0.11304E-04   -0.11729E-05 14144   0.629E-03    0.289E-03
RMM:  31    -0.253477778147E+03   -0.15434E-05   -0.30760E-06 10612   0.311E-03    0.206E-03
RMM:  32    -0.253477777237E+03    0.91009E-06   -0.38353E-06 11073   0.377E-03
   1 F= -.25347778E+03 E0= -.25346742E+03  d E =-.253478E+03
       N       E                     dE             d eps       ncg     rms          rms(c)
DAV:   1    -0.253480446100E+03   -0.26680E-02   -0.16731E-01 17056   0.733E-01    0.418E-02
RMM:   2    -0.253480654841E+03   -0.20874E-03   -0.22534E-03 16387   0.117E-01    0.359E-02
RMM:   3    -0.253480660963E+03   -0.61227E-05   -0.19941E-04 19377   0.386E-02    0.277E-02
RMM:   4    -0.253480661376E+03   -0.41302E-06   -0.47300E-05 17124   0.124E-02    0.312E-02
RMM:   5    -0.253480637882E+03    0.23494E-04   -0.62694E-05 16452   0.157E-02    0.100E-02
RMM:   6    -0.253480641552E+03   -0.36700E-05   -0.98840E-06 15637   0.721E-03    0.882E-03
RMM:   7    -0.253480639520E+03    0.20319E-05   -0.56479E-06 13399   0.536E-03    0.425E-03
RMM:   8    -0.253480639985E+03   -0.46446E-06   -0.15856E-06  9126   0.280E-03
   2 F= -.25348064E+03 E0= -.25347024E+03  d E =-.286275E-02
       N       E                     dE             d eps       ncg     rms          rms(c)
DAV:   1    -0.253483918372E+03   -0.32789E-02   -0.15056E+00 16824   0.220E+00    0.123E-01
RMM:   2    -0.253485559858E+03   -0.16415E-02   -0.16450E-02 16384   0.341E-01    0.249E-02
RMM:   3    -0.253485732070E+03   -0.17221E-03   -0.18053E-03 22007   0.996E-02    0.868E-03
RMM:   4    -0.253485737636E+03   -0.55658E-05   -0.83819E-05 15747   0.117E-02    0.496E-03
RMM:   5    -0.253485737563E+03    0.73218E-07   -0.80075E-06 11239   0.596E-03
   3 F= -.25348574E+03 E0= -.25347523E+03  d E =-.796033E-02
       N       E                     dE             d eps       ncg     rms          rms(c)
DAV:   1    -0.253485925702E+03   -0.18807E-03   -0.33516E-01 16800   0.104E+00    0.581E-02
RMM:   2    -0.253486291802E+03   -0.36610E-03   -0.35716E-03 16385   0.157E-01    0.160E-02
RMM:   3    -0.253486326965E+03   -0.35163E-04   -0.39794E-04 22153   0.470E-02    0.223E-03
RMM:   4    -0.253486327119E+03   -0.15405E-06   -0.18398E-05 13054   0.555E-03    0.137E-03
RMM:   5    -0.253486326839E+03    0.28055E-06   -0.16211E-06  9739   0.261E-03
   4 F= -.25348633E+03 E0= -.25347577E+03  d E =-.854960E-02
       N       E                     dE             d eps       ncg     rms          rms(c)
DAV:   1    -0.253488022991E+03   -0.16959E-02   -0.44279E-01 16672   0.124E+00    0.737E-02
RMM:   2    -0.253488635292E+03   -0.61230E-03   -0.66995E-03 16385   0.195E-01    0.645E-02
RMM:   3    -0.253488677921E+03   -0.42629E-04   -0.60549E-04 19685   0.653E-02    0.656E-02
RMM:   4    -0.253488617367E+03    0.60553E-04   -0.22278E-04 16690   0.298E-02    0.363E-02
RMM:   5    -0.253488602032E+03    0.15335E-04   -0.10292E-04 18125   0.166E-02    0.212E-02
RMM:   6    -0.253488593876E+03    0.81561E-05   -0.11375E-05 16309   0.834E-03    0.166E-02
RMM:   7    -0.253488587046E+03    0.68298E-05   -0.15336E-05 16376   0.853E-03    0.636E-03
RMM:   8    -0.253488586858E+03    0.18818E-06   -0.27232E-06  9633   0.548E-03
   5 F= -.25348859E+03 E0= -.25347799E+03  d E =-.226002E-02
       N       E                     dE             d eps       ncg     rms          rms(c)
DAV:   1    -0.253488671578E+03   -0.84532E-04   -0.71130E-02 16848   0.496E-01    0.290E-02
RMM:   2    -0.253488753214E+03   -0.81635E-04   -0.87847E-04 16382   0.744E-02    0.326E-03
RMM:   3    -0.253488759537E+03   -0.63230E-05   -0.85602E-05 21581   0.229E-02    0.557E-03
RMM:   4    -0.253488759364E+03    0.17233E-06   -0.52377E-06 11664   0.332E-03
   6 F= -.25348876E+03 E0= -.25347814E+03  d E =-.243253E-02
       N       E                     dE             d eps       ncg     rms          rms(c)
DAV:   1    -0.253489305572E+03   -0.54603E-03   -0.64041E-02 16752   0.467E-01    0.291E-02
RMM:   2    -0.253489396713E+03   -0.91142E-04   -0.90167E-04 16383   0.747E-02    0.245E-02
RMM:   3    -0.253489403554E+03   -0.68403E-05   -0.88563E-05 21198   0.232E-02    0.236E-02
RMM:   4    -0.253489385698E+03    0.17856E-04   -0.52860E-05 16491   0.134E-02    0.133E-02
RMM:   5    -0.253489385679E+03    0.18514E-07   -0.26464E-05 16979   0.108E-02    0.106E-02
RMM:   6    -0.253489385143E+03    0.53650E-06   -0.85587E-06 16119   0.598E-03
   7 F= -.25348939E+03 E0= -.25347877E+03  d E =-.625778E-03
