 vasp.5.4.4.18Apr17-6-g9f103f2a35 (build Jul 24 2019 14:41:59) complex          
  
 executed on IFC18.0.1.163_CrayMP date 2021.01.10  13:00:45
 running on   64 total cores
 distrk:  each k-point on   64 cores,    1 groups
 distr:  one band on NCORES_PER_BAND=   8 cores,    8 groups


--------------------------------------------------------------------------------------------------------


 INCAR:
 POTCAR:   PAW_PBE Pt 05Jan2001                   
 POTCAR:   PAW_PBE C 08Apr2002                    
 POTCAR:   PAW_PBE H 15Jun2001                    
 POTCAR:   PAW_PBE C 08Apr2002                    
 POTCAR:   PAW_PBE H 15Jun2001                    

 ----------------------------------------------------------------------------- 
|                                                                             |
|  ADVICE TO THIS USER RUNNING 'VASP/VAMP'   (HEAR YOUR MASTER'S VOICE ...):  |
|                                                                             |
|      You have switched on vdW-DFT.                                          |
|      This routine was written and supplied by Jiri Klimes.                  |
|      We recommed that you carefully read and cite the following             |
|      publication                                                            |
|      J. Klimes, D.R. Bowler, A. Michelides                                  |
|        J. Phys.: Cond Matt. 22 022201 (2010)                                |
|      J. Klimes, D.R. Bowler, A. Michelides                                  |
|        Phys. Rev. B. 83, 195131 (2011)                                      |
|      and references therein.                                                |
|                                                                             |
 ----------------------------------------------------------------------------- 

 POTCAR:   PAW_PBE Pt 05Jan2001                   
   VRHFIN =Pt: s1d9                                                             
   LEXCH  = PE                                                                  
   EATOM  =   729.1171 eV,   53.5886 Ry                                         
                                                                                
   TITEL  = PAW_PBE Pt 05Jan2001                                                
   LULTRA =        F    use ultrasoft PP ?                                      
   IUNSCR =        1    unscreen: 0-lin 1-nonlin 2-no                           
   RPACOR =    2.330    partial core radius                                     
   POMASS =  195.080; ZVAL   =   10.000    mass and valenz                      
   RCORE  =    2.500    outmost cutoff radius                                   
   RWIGS  =    2.750; RWIGS  =    1.455    wigner-seitz radius (au A)           
   ENMAX  =  230.283; ENMIN  =  172.712 eV                                      
   RCLOC  =    1.896    cutoff for local pot                                    
   LCOR   =        T    correct aug charges                                     
   LPAW   =        T    paw PP                                                  
   EAUG   =  358.966                                                            
   DEXC   =    -.039                                                            
   RMAX   =    3.038    core radius for proj-oper                               
   RAUG   =    1.300    factor for augmentation sphere                          
   RDEP   =    2.590    radius for radial grids                                 
   QCUT   =   -4.114; QGAM   =    8.228    optimization parameters              
                                                                                
   Description                                                                  
     l     E      TYP  RCUT    TYP  RCUT                                        
     2   .000     23  2.500                                                     
     2   .000     23  2.500                                                     
     0   .000     23  2.500                                                     
     0   .000     23  2.500                                                     
     1  -.200     23  2.500                                                     
     1  1.500     23  2.500                                                     
     3   .000      7   .000                                                     
  local pseudopotential read in
  partial core-charges read in
  atomic valenz-charges read in
  non local Contribution for L=           2  read in
    real space projection operators read in
  non local Contribution for L=           2  read in
    real space projection operators read in
  non local Contribution for L=           0  read in
    real space projection operators read in
  non local Contribution for L=           0  read in
    real space projection operators read in
  non local Contribution for L=           1  read in
    real space projection operators read in
  non local Contribution for L=           1  read in
    real space projection operators read in
    PAW grid and wavefunctions read in
 
   number of l-projection  operators is LMAX  =           6
   number of lm-projection operators is LMMAX =          18
 
 POTCAR:   PAW_PBE C 08Apr2002                    
   VRHFIN =C: s2p2                                                              
   LEXCH  = PE                                                                  
   EATOM  =   147.1560 eV,   10.8157 Ry                                         
                                                                                
   TITEL  = PAW_PBE C 08Apr2002                                                 
   LULTRA =        F    use ultrasoft PP ?                                      
   IUNSCR =        0    unscreen: 0-lin 1-nonlin 2-no                           
   RPACOR =     .000    partial core radius                                     
   POMASS =   12.011; ZVAL   =    4.000    mass and valenz                      
   RCORE  =    1.500    outmost cutoff radius                                   
   RWIGS  =    1.630; RWIGS  =     .863    wigner-seitz radius (au A)           
   ENMAX  =  400.000; ENMIN  =  300.000 eV                                      
   ICORE  =        2    local potential                                         
   LCOR   =        T    correct aug charges                                     
   LPAW   =        T    paw PP                                                  
   EAUG   =  644.873                                                            
   DEXC   =     .000                                                            
   RMAX   =    2.266    core radius for proj-oper                               
   RAUG   =    1.300    factor for augmentation sphere                          
   RDEP   =    1.501    radius for radial grids                                 
   RDEPT  =    1.300    core radius for aug-charge                              
   QCUT   =   -5.516; QGAM   =   11.032    optimization parameters              
                                                                                
   Description                                                                  
     l     E      TYP  RCUT    TYP  RCUT                                        
     0   .000     23  1.200                                                     
     0   .000     23  1.200                                                     
     1   .000     23  1.500                                                     
     1  2.500     23  1.500                                                     
     2   .000      7  1.500                                                     
  local pseudopotential read in
  atomic valenz-charges read in
  non local Contribution for L=           0  read in
    real space projection operators read in
  non local Contribution for L=           0  read in
    real space projection operators read in
  non local Contribution for L=           1  read in
    real space projection operators read in
  non local Contribution for L=           1  read in
    real space projection operators read in
    PAW grid and wavefunctions read in
 
   number of l-projection  operators is LMAX  =           4
   number of lm-projection operators is LMMAX =           8
 
 POTCAR:   PAW_PBE H 15Jun2001                    
   VRHFIN =H: ultrasoft test                                                    
   LEXCH  = PE                                                                  
   EATOM  =    12.4884 eV,     .9179 Ry                                         
                                                                                
   TITEL  = PAW_PBE H 15Jun2001                                                 
   LULTRA =        F    use ultrasoft PP ?                                      
   IUNSCR =        0    unscreen: 0-lin 1-nonlin 2-no                           
   RPACOR =     .000    partial core radius                                     
   POMASS =    1.000; ZVAL   =    1.000    mass and valenz                      
   RCORE  =    1.100    outmost cutoff radius                                   
   RWIGS  =     .700; RWIGS  =     .370    wigner-seitz radius (au A)           
   ENMAX  =  250.000; ENMIN  =  200.000 eV                                      
   RCLOC  =     .701    cutoff for local pot                                    
   LCOR   =        T    correct aug charges                                     
   LPAW   =        T    paw PP                                                  
   EAUG   =  400.000                                                            
   RMAX   =    2.174    core radius for proj-oper                               
   RAUG   =    1.200    factor for augmentation sphere                          
   RDEP   =    1.112    radius for radial grids                                 
   QCUT   =   -5.749; QGAM   =   11.498    optimization parameters              
                                                                                
   Description                                                                  
     l     E      TYP  RCUT    TYP  RCUT                                        
     0   .000     23  1.100                                                     
     0   .500     23  1.100                                                     
     1  -.300     23  1.100                                                     
  local pseudopotential read in
  atomic valenz-charges read in
  non local Contribution for L=           0  read in
    real space projection operators read in
  non local Contribution for L=           0  read in
    real space projection operators read in
  non local Contribution for L=           1  read in
    real space projection operators read in
    PAW grid and wavefunctions read in
 
   number of l-projection  operators is LMAX  =           3
   number of lm-projection operators is LMMAX =           5
 
 POTCAR:   PAW_PBE C 08Apr2002                    
   VRHFIN =C: s2p2                                                              
   LEXCH  = PE                                                                  
   EATOM  =   147.1560 eV,   10.8157 Ry                                         
                                                                                
   TITEL  = PAW_PBE C 08Apr2002                                                 
   LULTRA =        F    use ultrasoft PP ?                                      
   IUNSCR =        0    unscreen: 0-lin 1-nonlin 2-no                           
   RPACOR =     .000    partial core radius                                     
   POMASS =   12.011; ZVAL   =    4.000    mass and valenz                      
   RCORE  =    1.500    outmost cutoff radius                                   
   RWIGS  =    1.630; RWIGS  =     .863    wigner-seitz radius (au A)           
   ENMAX  =  400.000; ENMIN  =  300.000 eV                                      
   ICORE  =        2    local potential                                         
   LCOR   =        T    correct aug charges                                     
   LPAW   =        T    paw PP                                                  
   EAUG   =  644.873                                                            
   DEXC   =     .000                                                            
   RMAX   =    2.266    core radius for proj-oper                               
   RAUG   =    1.300    factor for augmentation sphere                          
   RDEP   =    1.501    radius for radial grids                                 
   RDEPT  =    1.300    core radius for aug-charge                              
   QCUT   =   -5.516; QGAM   =   11.032    optimization parameters              
                                                                                
   Description                                                                  
     l     E      TYP  RCUT    TYP  RCUT                                        
     0   .000     23  1.200                                                     
     0   .000     23  1.200                                                     
     1   .000     23  1.500                                                     
     1  2.500     23  1.500                                                     
     2   .000      7  1.500                                                     
  local pseudopotential read in
  atomic valenz-charges read in
  non local Contribution for L=           0  read in
    real space projection operators read in
  non local Contribution for L=           0  read in
    real space projection operators read in
  non local Contribution for L=           1  read in
    real space projection operators read in
  non local Contribution for L=           1  read in
    real space projection operators read in
    PAW grid and wavefunctions read in
 
   number of l-projection  operators is LMAX  =           4
   number of lm-projection operators is LMMAX =           8
 
 POTCAR:   PAW_PBE H 15Jun2001                    
   VRHFIN =H: ultrasoft test                                                    
   LEXCH  = PE                                                                  
   EATOM  =    12.4884 eV,     .9179 Ry                                         
                                                                                
   TITEL  = PAW_PBE H 15Jun2001                                                 
   LULTRA =        F    use ultrasoft PP ?                                      
   IUNSCR =        0    unscreen: 0-lin 1-nonlin 2-no                           
   RPACOR =     .000    partial core radius                                     
   POMASS =    1.000; ZVAL   =    1.000    mass and valenz                      
   RCORE  =    1.100    outmost cutoff radius                                   
   RWIGS  =     .700; RWIGS  =     .370    wigner-seitz radius (au A)           
   ENMAX  =  250.000; ENMIN  =  200.000 eV                                      
   RCLOC  =     .701    cutoff for local pot                                    
   LCOR   =        T    correct aug charges                                     
   LPAW   =        T    paw PP                                                  
   EAUG   =  400.000                                                            
   RMAX   =    2.174    core radius for proj-oper                               
   RAUG   =    1.200    factor for augmentation sphere                          
   RDEP   =    1.112    radius for radial grids                                 
   QCUT   =   -5.749; QGAM   =   11.498    optimization parameters              
                                                                                
   Description                                                                  
     l     E      TYP  RCUT    TYP  RCUT                                        
     0   .000     23  1.100                                                     
     0   .500     23  1.100                                                     
     1  -.300     23  1.100                                                     
  local pseudopotential read in
  atomic valenz-charges read in
  non local Contribution for L=           0  read in
    real space projection operators read in
  non local Contribution for L=           0  read in
    real space projection operators read in
  non local Contribution for L=           1  read in
    real space projection operators read in
    PAW grid and wavefunctions read in
 
   number of l-projection  operators is LMAX  =           3
   number of lm-projection operators is LMMAX =           5
 
 Optimization of the real space projectors (new method)

 maximal supplied QI-value         = 15.12
 optimisation between [QCUT,QGAM] = [ 10.13, 20.26] = [ 28.73,114.92] Ry 
 Optimized for a Real-space Cutoff    1.66 Angstroem

   l    n(q)    QCUT    max X(q) W(low)/X(q) W(high)/X(q)  e(spline) 
   2      9    10.129     3.643    0.26E-04    0.47E-05    0.66E-07
   2      9    10.129    46.462    0.19E-03    0.14E-03    0.36E-06
   0     10    10.129    13.796    0.20E-04    0.13E-05    0.52E-08
   0     10    10.129    57.669    0.74E-04    0.43E-04    0.14E-06
   1     10    10.129     7.440    0.56E-05    0.78E-05    0.31E-07
   1     10    10.129    10.255    0.35E-04    0.26E-05    0.11E-06
 Optimization of the real space projectors (new method)

 maximal supplied QI-value         = 25.13
 optimisation between [QCUT,QGAM] = [ 10.05, 20.36] = [ 28.30,116.06] Ry 
 Optimized for a Real-space Cutoff    1.39 Angstroem

   l    n(q)    QCUT    max X(q) W(low)/X(q) W(high)/X(q)  e(spline) 
   0      8    10.053     5.582    0.33E-04    0.11E-04    0.76E-07
   0      8    10.053    69.432    0.23E-03    0.30E-03    0.26E-06
   1      8    10.053     2.780    0.71E-04    0.11E-03    0.15E-06
   1      8    10.053     4.549    0.18E-03    0.18E-03    0.28E-06
 Optimization of the real space projectors (new method)

 maximal supplied QI-value         = 34.20
 optimisation between [QCUT,QGAM] = [  9.92, 20.18] = [ 27.55,114.04] Ry 
 Optimized for a Real-space Cutoff    1.35 Angstroem

   l    n(q)    QCUT    max X(q) W(low)/X(q) W(high)/X(q)  e(spline) 
   0      8     9.919     4.436    0.29E-04    0.54E-04    0.68E-07
   0      8     9.919    16.131    0.15E-03    0.18E-03    0.35E-06
   1      8     9.919     4.654    0.20E-03    0.45E-03    0.40E-06
 Optimization of the real space projectors (new method)

 maximal supplied QI-value         = 25.13
 optimisation between [QCUT,QGAM] = [ 10.05, 20.36] = [ 28.30,116.06] Ry 
 Optimized for a Real-space Cutoff    1.39 Angstroem

   l    n(q)    QCUT    max X(q) W(low)/X(q) W(high)/X(q)  e(spline) 
   0      8    10.053     5.582    0.33E-04    0.11E-04    0.76E-07
   0      8    10.053    69.432    0.23E-03    0.30E-03    0.26E-06
   1      8    10.053     2.780    0.71E-04    0.11E-03    0.15E-06
   1      8    10.053     4.549    0.18E-03    0.18E-03    0.28E-06
 Optimization of the real space projectors (new method)

 maximal supplied QI-value         = 34.20
 optimisation between [QCUT,QGAM] = [  9.92, 20.18] = [ 27.55,114.04] Ry 
 Optimized for a Real-space Cutoff    1.35 Angstroem

   l    n(q)    QCUT    max X(q) W(low)/X(q) W(high)/X(q)  e(spline) 
   0      8     9.919     4.436    0.29E-04    0.54E-04    0.68E-07
   0      8     9.919    16.131    0.15E-03    0.18E-03    0.35E-06
   1      8     9.919     4.654    0.20E-03    0.45E-03    0.40E-06

 ----------------------------------------------------------------------------- 
|                                                                             |
|  ADVICE TO THIS USER RUNNING 'VASP/VAMP'   (HEAR YOUR MASTER'S VOICE ...):  |
|                                                                             |
|      You enforced a specific xc-type in the INCAR file,                     |
|      a different type was found on the POTCAR file                          |
|          I HOPE YOU KNOW, WHAT YOU ARE  DOING                               |
|                                                                             |
 ----------------------------------------------------------------------------- 

 PAW_PBE Pt 05Jan2001                   :
 energy of atom  1       EATOM= -729.1171
 kinetic energy error for atom=    0.0058 (will be added to EATOM!!)
 PAW_PBE C 08Apr2002                    :
 energy of atom  2       EATOM= -147.1560
 kinetic energy error for atom=    0.0312 (will be added to EATOM!!)
 PAW_PBE H 15Jun2001                    :
 energy of atom  3       EATOM=  -12.4884
 kinetic energy error for atom=    0.0103 (will be added to EATOM!!)
 PAW_PBE C 08Apr2002                    :
 energy of atom  4       EATOM= -147.1560
 kinetic energy error for atom=    0.0312 (will be added to EATOM!!)
 PAW_PBE H 15Jun2001                    :
 energy of atom  5       EATOM=  -12.4884
 kinetic energy error for atom=    0.0103 (will be added to EATOM!!)
 
 
 POSCAR: Pt						                                
  positions in direct lattice
  velocities in cartesian coordinates
 exchange correlation table for  LEXCH =       41
   RHO(1)=    0.500       N(1)  =     2000
   RHO(2)=  100.500       N(2)  =     4000
 


--------------------------------------------------------------------------------------------------------


 ion  position               nearest neighbor table
   1  0.000  0.000  0.372-   2 2.82   4 2.82   3 2.82   6 2.82   8 2.82   7 2.82  10 2.82  12 2.82
                            16 2.82
   2  0.333  0.000  0.372-   4 2.82   1 2.82   5 2.82  10 2.82   8 2.82   9 2.82   3 2.82  11 2.82
                            17 2.82
   3  0.667  0.000  0.372-   6 2.82   5 2.82   1 2.82   7 2.82  12 2.82   9 2.82  11 2.82   2 2.82
                            18 2.82
   4  0.000  0.333  0.372-   2 2.82   9 2.82   1 2.82   7 2.82   5 2.82  10 2.82   6 2.82  13 2.82
                            15 2.82
   5  0.333  0.333  0.372-   6 2.82   8 2.82   7 2.82   3 2.82   2 2.82   4 2.82  11 2.82  14 2.82
                            13 2.82
   6  0.667  0.333  0.372-   3 2.82   5 2.82   8 2.82   1 2.82  15 2.82   9 2.82  12 2.82  14 2.82
                             4 2.82
   7  0.000  0.667  0.372-   5 2.82   8 2.82   9 2.82   4 2.82   3 2.82  16 2.82  13 2.82   1 2.82
                            18 2.82
   8  0.333  0.667  0.372-   6 2.82   5 2.82   7 2.82   1 2.82  17 2.82  16 2.82   2 2.82  14 2.82
                             9 2.82
   9  0.667  0.667  0.372-  18 2.82   4 2.82   7 2.82   6 2.82  15 2.82   2 2.82   3 2.82   8 2.82
                            17 2.82
  10  0.111  0.111  0.457-  19 2.77  13 2.82  15 2.82  11 2.82   4 2.82   2 2.82  12 2.82  17 2.82
                             1 2.82  16 2.82  25 2.86  21 2.87
  11  0.444  0.111  0.457-  26 2.81  19 2.81  14 2.82  12 2.82  13 2.82  18 2.82  10 2.82   5 2.82
                             3 2.82   2 2.82  17 2.82  20 2.83
  12  0.778  0.111  0.457-  27 2.82  15 2.82  14 2.82  11 2.82   3 2.82   6 2.82  10 2.82   1 2.82
                            16 2.82  18 2.82  21 2.82  20 2.84
  13  0.111  0.444  0.457-  19 2.80  16 2.82  11 2.82  14 2.82  10 2.82  18 2.82   7 2.82   5 2.82
                             4 2.82  15 2.82  24 2.82  22 2.82
  14  0.444  0.444  0.457-  16 2.82  17 2.82  15 2.82  11 2.82  12 2.82  13 2.82   5 2.82   8 2.82
                             6 2.82  23 2.82  20 2.83  22 2.84
  15  0.778  0.444  0.457-  24 2.79  17 2.82  18 2.82  14 2.82  12 2.82  10 2.82   6 2.82   9 2.82
                             4 2.82  13 2.82  21 2.84  23 2.86
  16  0.111  0.778  0.457-  14 2.82  13 2.82  17 2.82   7 2.82   8 2.82  12 2.82   1 2.82  10 2.82
                            18 2.82  25 2.82  22 2.83  27 2.83
  17  0.444  0.778  0.457-  26 2.79  15 2.82  14 2.82  18 2.82  16 2.82   8 2.82  10 2.82   9 2.82
                             2 2.82  11 2.82  23 2.84  25 2.86
  18  0.778  0.778  0.457-  27 2.81  24 2.81  15 2.82  17 2.82   9 2.82  11 2.82  13 2.82   3 2.82
                             7 2.82  16 2.82  12 2.82  26 2.83
  19  0.218  0.221  0.542-  29 2.76  10 2.77  13 2.80  26 2.81  11 2.81  24 2.82  25 2.83  21 2.83
                            20 2.85  22 2.85  35 2.86  28 2.87
  20  0.553  0.224  0.543-  21 2.78  29 2.80  23 2.80  36 2.80  22 2.82  27 2.82  14 2.83  11 2.83
                            26 2.84  12 2.84  19 2.85  30 2.95
  21  0.883  0.223  0.544-  28 2.78  20 2.78  23 2.81  27 2.81  24 2.82  12 2.82  34 2.82  19 2.83
                            15 2.84  25 2.85  10 2.87  30 2.99
  22  0.220  0.557  0.543-  25 2.78  29 2.79  23 2.80  20 2.82  33 2.82  27 2.82  13 2.82  16 2.83
                            24 2.84  14 2.84  19 2.85  31 2.94
  23  0.551  0.555  0.544-  32 2.77  20 2.80  22 2.80  25 2.80  21 2.81  24 2.82  26 2.82  14 2.82
                            17 2.84  15 2.86  30 2.96  31 2.98
  24  0.885  0.555  0.542-  15 2.79  33 2.80  18 2.81  19 2.82  21 2.82  23 2.82  13 2.82  26 2.82
                            32 2.83  27 2.83  22 2.84  28 2.84
  25  0.219  0.886  0.544-  35 2.78  22 2.78  23 2.80  27 2.81  26 2.82  16 2.82  19 2.83  34 2.83
                            21 2.85  10 2.86  17 2.86  31 2.97
  26  0.551  0.889  0.542-  17 2.79  36 2.80  11 2.81  32 2.81  19 2.81  25 2.82  23 2.82  24 2.82
                            18 2.83  27 2.83  20 2.84  35 2.86
  27  0.886  0.889  0.543-  18 2.81  21 2.81  25 2.81  33 2.81  12 2.82  34 2.82  20 2.82  22 2.82
                            36 2.83  26 2.83  16 2.83  24 2.83
  28  0.991  0.332  0.629-  21 2.78  29 2.80  34 2.81  32 2.82  30 2.82  35 2.82  33 2.83  24 2.84
                            19 2.87
  29  0.323  0.329  0.626-  19 2.76  22 2.79  28 2.80  20 2.80  35 2.80  36 2.81  33 2.82  31 2.84
                            30 2.86
  30  0.657  0.336  0.636-  40 2.15  31 2.77  28 2.82  32 2.82  36 2.84  34 2.85  29 2.86  20 2.95
                            23 2.96  21 2.99
  31  0.327  0.662  0.636-  39 2.14  30 2.77  33 2.82  29 2.84  35 2.84  32 2.84  34 2.85  22 2.94
                            25 2.97  23 2.98
  32  0.659  0.667  0.628-  23 2.77  33 2.81  36 2.81  35 2.81  26 2.81  28 2.82  30 2.82  24 2.83
                            31 2.84
  33  0.992  0.666  0.628-  24 2.80  32 2.81  27 2.81  22 2.82  36 2.82  34 2.82  29 2.82  31 2.82
                            28 2.83
  34  0.992  1.000  0.629-  28 2.81  35 2.81  27 2.82  36 2.82  21 2.82  33 2.82  25 2.83  30 2.85
                            31 2.85
  35  0.325  0.998  0.629-  25 2.78  29 2.80  34 2.81  32 2.81  28 2.82  36 2.83  31 2.84  19 2.86
                            26 2.86
  36  0.659  1.000  0.628-  20 2.80  26 2.80  32 2.81  29 2.81  33 2.82  34 2.82  27 2.83  35 2.83
                            30 2.84
  37  0.317  0.485  0.792-  44 1.10  43 1.10  38 1.55  42 1.56
  38  0.249  0.547  0.738-  45 1.10  46 1.11  39 1.53  37 1.55
  39  0.392  0.577  0.712-  47 1.10  40 1.51  38 1.53  31 2.14
  40  0.581  0.411  0.713-  48 1.10  39 1.51  41 1.53  30 2.15
  41  0.597  0.249  0.742-  50 1.10  49 1.10  40 1.53  42 1.56
  42  0.503  0.303  0.794-  51 1.10  52 1.54  37 1.56  41 1.56
  43  0.212  0.468  0.812-  37 1.10
  44  0.327  0.594  0.811-  37 1.10
  45  0.115  0.673  0.738-  38 1.10
  46  0.231  0.441  0.720-  38 1.11
  47  0.392  0.699  0.726-  39 1.10
  48  0.685  0.447  0.723-  40 1.10
  49  0.532  0.184  0.721-  41 1.10
  50  0.742  0.144  0.746-  41 1.10
  51  0.595  0.321  0.820-  42 1.10
  52  0.479  0.145  0.813-  54 1.10  53 1.10  55 1.10  42 1.54
  53  0.610  0.017  0.816-  52 1.10
  54  0.415  0.176  0.850-  52 1.10
  55  0.390  0.122  0.788-  52 1.10
 

IMPORTANT INFORMATION: All symmetrisations will be switched off!
NOSYMM: (Re-)initialisation of all symmetry stuff for point group C_1.

 
 
 KPOINTS: Automatic mesh                          

Automatic generation of k-mesh.
Space group operators:
 irot       det(A)        alpha          n_x          n_y          n_z        tau_x        tau_y        tau_z
    1     1.000000     0.000000     1.000000     0.000000     0.000000     0.000000     0.000000     0.000000
 
 Subroutine IBZKPT returns following result:
 ===========================================
 
 Found     34 irreducible k-points:
 
 Following reciprocal coordinates:
            Coordinates               Weight
  0.000000  0.000000  0.000000      1.000000
  0.125000  0.000000  0.000000      2.000000
  0.250000  0.000000  0.000000      2.000000
  0.375000  0.000000  0.000000      2.000000
  0.500000  0.000000  0.000000      1.000000
  0.000000  0.125000  0.000000      2.000000
  0.125000  0.125000  0.000000      2.000000
  0.250000  0.125000  0.000000      2.000000
  0.375000  0.125000  0.000000      2.000000
  0.500000  0.125000  0.000000      2.000000
 -0.375000  0.125000  0.000000      2.000000
 -0.250000  0.125000  0.000000      2.000000
 -0.125000  0.125000  0.000000      2.000000
  0.000000  0.250000  0.000000      2.000000
  0.125000  0.250000  0.000000      2.000000
  0.250000  0.250000  0.000000      2.000000
  0.375000  0.250000  0.000000      2.000000
  0.500000  0.250000  0.000000      2.000000
 -0.375000  0.250000  0.000000      2.000000
 -0.250000  0.250000  0.000000      2.000000
 -0.125000  0.250000  0.000000      2.000000
  0.000000  0.375000  0.000000      2.000000
  0.125000  0.375000  0.000000      2.000000
  0.250000  0.375000  0.000000      2.000000
  0.375000  0.375000  0.000000      2.000000
  0.500000  0.375000  0.000000      2.000000
 -0.375000  0.375000  0.000000      2.000000
 -0.250000  0.375000  0.000000      2.000000
 -0.125000  0.375000  0.000000      2.000000
  0.000000  0.500000  0.000000      1.000000
  0.125000  0.500000  0.000000      2.000000
  0.250000  0.500000  0.000000      2.000000
  0.375000  0.500000  0.000000      2.000000
  0.500000  0.500000  0.000000      1.000000
 
 Following cartesian coordinates:
            Coordinates               Weight
  0.000000  0.000000  0.000000      1.000000
  0.014783 -0.008535  0.000000      2.000000
  0.029566 -0.017070  0.000000      2.000000
  0.044349 -0.025605  0.000000      2.000000
  0.059133 -0.034140  0.000000      1.000000
  0.000000  0.017070  0.000000      2.000000
  0.014783  0.008535  0.000000      2.000000
  0.029566 -0.000000  0.000000      2.000000
  0.044349 -0.008535  0.000000      2.000000
  0.059133 -0.017070  0.000000      2.000000
 -0.044349  0.042675  0.000000      2.000000
 -0.029566  0.034140  0.000000      2.000000
 -0.014783  0.025605  0.000000      2.000000
  0.000000  0.034140  0.000000      2.000000
  0.014783  0.025605  0.000000      2.000000
  0.029566  0.017070  0.000000      2.000000
  0.044349  0.008535  0.000000      2.000000
  0.059133 -0.000000  0.000000      2.000000
 -0.044349  0.059745  0.000000      2.000000
 -0.029566  0.051210  0.000000      2.000000
 -0.014783  0.042675  0.000000      2.000000
  0.000000  0.051210  0.000000      2.000000
  0.014783  0.042675  0.000000      2.000000
  0.029566  0.034140  0.000000      2.000000
  0.044349  0.025605  0.000000      2.000000
  0.059133  0.017070  0.000000      2.000000
 -0.044349  0.076815  0.000000      2.000000
 -0.029566  0.068280  0.000000      2.000000
 -0.014783  0.059745  0.000000      2.000000
  0.000000  0.068280  0.000000      1.000000
  0.014783  0.059745  0.000000      2.000000
  0.029566  0.051210  0.000000      2.000000
  0.044349  0.042675  0.000000      2.000000
  0.059133  0.034140  0.000000      1.000000
 


--------------------------------------------------------------------------------------------------------




 Dimension of arrays:
   k-points           NKPTS =     34   k-points in BZ     NKDIM =     34   number of bands    NBANDS=    240
   number of dos      NEDOS =    301   number of ions     NIONS =     55
   non local maximal  LDIM  =      6   non local SUM 2l+1 LMDIM =     18
   total plane-waves  NPLWV = 564480
   max r-space proj   IRMAX =   6504   max aug-charges    IRDMAX= 164369
   dimension x,y,z NGX =    56 NGY =   56 NGZ =  180
   dimension x,y,z NGXF=   112 NGYF=  112 NGZF=  360
   support grid    NGXF=   224 NGYF=  224 NGZF=  720
   ions per type =              36   6   9   1   3
   NGX,Y,Z   is equivalent  to a cutoff of  11.01, 11.01, 11.12 a.u.
   NGXF,Y,Z  is equivalent  to a cutoff of  22.02, 22.02, 22.25 a.u.

 SYSTEM =  unknown system                          
 POSCAR =  Pt						                                

 Startparameter for this run:
   NWRITE =      2    write-flag & timer
   PREC   = accura    normal or accurate (medium, high low for compatibility)
   ISTART =      0    job   : 0-new  1-cont  2-samecut
   ICHARG =      2    charge: 1-file 2-atom 10-const
   ISPIN  =      1    spin polarized calculation?
   LNONCOLLINEAR =      F non collinear calculations
   LSORBIT =      F    spin-orbit coupling
   INIWAV =      1    electr: 0-lowe 1-rand  2-diag
   LASPH  =      F    aspherical Exc in radial PAW
   METAGGA=      F    non-selfconsistent MetaGGA calc.

 Electronic Relaxation 1
   ENCUT  =  396.0 eV  29.11 Ry    5.39 a.u.  13.72 13.72 43.65*2*pi/ulx,y,z
   ENINI  =  396.0     initial cutoff
   ENAUG  =  644.9 eV  augmentation charge cutoff
   NELM   =   1000;   NELMIN=  2; NELMDL= -5     # of ELM steps 
   EDIFF  = 0.1E-05   stopping-criterion for ELM
   LREAL  =      T    real-space projection
   NLSPLINE    = F    spline interpolate recip. space projectors
   LCOMPAT=      F    compatible to vasp.4.4
   GGA_COMPAT  = T    GGA compatible to vasp.4.4-vasp.4.6
   LMAXPAW     = -100 max onsite density
   LMAXMIX     =    2 max onsite mixed and CHGCAR
   VOSKOWN=      0    Vosko Wilk Nusair interpolation
   ROPT   =   -0.00025  -0.00025  -0.00025  -0.00025
   ROPT   =   -0.00025
 Ionic relaxation
   EDIFFG = -.5E-01   stopping-criterion for IOM
   NSW    =   1000    number of steps for IOM
   NBLOCK =      1;   KBLOCK =   1000    inner block; outer block 
   IBRION =      2    ionic relax: 0-MD 1-quasi-New 2-CG
   NFREE  =      1    steps in history (QN), initial steepest desc. (CG)
   ISIF   =      0    stress and relaxation
   IWAVPR =     11    prediction:  0-non 1-charg 2-wave 3-comb
   ISYM   =      0    0-nonsym 1-usesym 2-fastsym
   LCORR  =      T    Harris-Foulkes like correction to forces

   POTIM  = 0.1000    time-step for ionic-motion
   TEIN   =    0.0    initial temperature
   TEBEG  =    0.0;   TEEND  =   0.0 temperature during run
   SMASS  =  -3.00    Nose mass-parameter (am)
   estimated Nose-frequenzy (Omega)   =  0.10E-29 period in steps =****** mass=  -0.163E-26a.u.
   SCALEE = 1.0000    scale energy and forces
   NPACO  =    256;   APACO  = 16.0  distance and # of slots for P.C.
   PSTRESS=    0.0 pullay stress

  Mass of Ions in am
   POMASS = 195.08 12.01  1.00 12.01  1.00
  Ionic Valenz
   ZVAL   =  10.00  4.00  1.00  4.00  1.00
  Atomic Wigner-Seitz radii
   RWIGS  =  -1.00 -1.00 -1.00 -1.00 -1.00
  virtual crystal weights 
   VCA    =   1.00  1.00  1.00  1.00  1.00
   NELECT =     400.0000    total number of electrons
   NUPDOWN=      -1.0000    fix difference up-down

 DOS related values:
   EMIN   =  10.00;   EMAX   =-10.00  energy-range for DOS
   EFERMI =   0.00
   ISMEAR =     2;   SIGMA  =   0.20  broadening in eV -4-tet -1-fermi 0-gaus

 Electronic relaxation 2 (details)
   IALGO  =     68    algorithm
   LDIAG  =      T    sub-space diagonalisation (order eigenvalues)
   LSUBROT=      F    optimize rotation matrix (better conditioning)
   TURBO    =      0    0=normal 1=particle mesh
   IRESTART =      0    0=no restart 2=restart with 2 vectors
   NREBOOT  =      0    no. of reboots
   NMIN     =      0    reboot dimension
   EREF     =   0.00    reference energy to select bands
   IMIX   =      4    mixing-type and parameters
     AMIX     =   0.40;   BMIX     =  4.00
     AMIX_MAG =   1.60;   BMIX_MAG =  4.00
     AMIN     =   0.10
     WC   =   100.;   INIMIX=   1;  MIXPRE=   1;  MAXMIX=  80

 Intra band minimization:
   WEIMIN = 0.0010     energy-eigenvalue tresh-hold
   EBREAK =  0.10E-08  absolut break condition
   DEPER  =   0.30     relativ break condition  

   TIME   =   0.40     timestep for ELM

  volume/ion in A,a.u.               =      30.29       204.39
  Fermi-wavevector in a.u.,A,eV,Ry     =   1.017537  1.922866 14.087222  1.035382
  Thomas-Fermi vector in A             =   2.150944
 
 Write flags
   LWAVE        =      T    write WAVECAR
   LDOWNSAMPLE  =      F    k-point downsampling of WAVECAR
   LCHARG       =      T    write CHGCAR
   LVTOT        =      F    write LOCPOT, total local potential
   LVHAR        =      F    write LOCPOT, Hartree potential only
   LELF         =      F    write electronic localiz. function (ELF)
   LORBIT       =      0    0 simple, 1 ext, 2 COOP (PROOUT), +10 PAW based schemes


 Dipole corrections
   LMONO  =      F    monopole corrections only (constant potential shift)
   LDIPOL =      F    correct potential (dipole corrections)
   IDIPOL =      0    1-x, 2-y, 3-z, 4-all directions 
   EPSILON=  1.0000000 bulk dielectric constant

 Exchange correlation treatment:
   GGA     =    OR    GGA type
   LEXCH   =    41    internal setting for exchange type
   VOSKOWN=      0    Vosko Wilk Nusair interpolation
   LHFCALC =     F    Hartree Fock is set to
   LHFONE  =     F    Hartree Fock one center treatment
   AEXX    =    0.0000 exact exchange contribution

 vdW DFT:
   LUSE_VDW   =     T    switch on vdW DFT
   Zab_VDW    =-.8491    correlation parameter
   PARAM1     =0.1234
   PARAM2     =1.0000
   PARAM3     =0.0000
   -- rVV10 --
   BPARAM     = 6.3000
   CPARAM     = 0.0093

 Linear response parameters
   LEPSILON=     F    determine dielectric tensor
   LRPA    =     F    only Hartree local field effects (RPA)
   LNABLA  =     F    use nabla operator in PAW spheres
   LVEL    =     F    velocity operator in full k-point grid
   LINTERFAST=   F  fast interpolation
   KINTER  =     0    interpolate to denser k-point grid
   CSHIFT  =0.1000    complex shift for real part using Kramers Kronig
   OMEGAMAX=  -1.0    maximum frequency
   DEG_THRESHOLD= 0.2000000E-02 threshold for treating states as degnerate
   RTIME   =   -0.100 relaxation time in fs
  (WPLASMAI=    0.000 imaginary part of plasma frequency in eV, 0.658/RTIME)
   DFIELD  = 0.0000000 0.0000000 0.0000000 field for delta impulse in time
 
 Orbital magnetization related:
   ORBITALMAG=     F  switch on orbital magnetization
   LCHIMAG   =     F  perturbation theory with respect to B field
   DQ        =  0.001000  dq finite difference perturbation B field
   LLRAUG    =     F  two centre corrections for induced B field



--------------------------------------------------------------------------------------------------------


 conjugate gradient relaxation of ions
   using selective dynamics as specified on POSCAR
 charge density and potential will be updated during run
 non-spin polarized calculation
 RMM-DIIS sequential band-by-band and
  variant of blocked Davidson during initial phase
 perform sub-space diagonalisation
    before iterative eigenvector-optimisation
 modified Broyden-mixing scheme, WC =      100.0
 initial mixing is a Kerker type mixing with AMIX =  0.4000 and BMIX =      4.0000
 Hartree-type preconditioning will be used
 using additional bands           40
 real space projection scheme for non local part
 use partial core corrections
 calculate Harris-corrections to forces 
   (improved forces if not selfconsistent)
 use gradient corrections 
 use of overlap-Matrix (Vanderbilt PP)
 Methfessel and Paxton  Order N= 2 SIGMA  =   0.20


--------------------------------------------------------------------------------------------------------


  energy-cutoff  :      396.00
  volume of cell :     1665.84
      direct lattice vectors                 reciprocal lattice vectors
     8.455582619  0.000000000  0.000000000     0.118265062 -0.068280376  0.000000000
     4.227791797  7.322749070  0.000000000     0.000000000  0.136560736  0.000000000
     0.000000000  0.000000000 26.903955460     0.000000000  0.000000000  0.037169256

  length of vectors
     8.455582619  8.455582619 26.903955460     0.136560736  0.136560736  0.037169256


 
 k-points in units of 2pi/SCALE and weight: Automatic mesh                          
   0.00000000  0.00000000  0.00000000       0.016
   0.01478313 -0.00853505  0.00000000       0.031
   0.02956627 -0.01707009  0.00000000       0.031
   0.04434940 -0.02560514  0.00000000       0.031
   0.05913253 -0.03414019  0.00000000       0.016
   0.00000000  0.01707009  0.00000000       0.031
   0.01478313  0.00853504  0.00000000       0.031
   0.02956627 -0.00000000  0.00000000       0.031
   0.04434940 -0.00853505  0.00000000       0.031
   0.05913253 -0.01707010  0.00000000       0.031
  -0.04434940  0.04267523  0.00000000       0.031
  -0.02956627  0.03414019  0.00000000       0.031
  -0.01478313  0.02560514  0.00000000       0.031
   0.00000000  0.03414018  0.00000000       0.031
   0.01478313  0.02560514  0.00000000       0.031
   0.02956627  0.01707009  0.00000000       0.031
   0.04434940  0.00853504  0.00000000       0.031
   0.05913253 -0.00000000  0.00000000       0.031
  -0.04434940  0.05974532  0.00000000       0.031
  -0.02956627  0.05121028  0.00000000       0.031
  -0.01478313  0.04267523  0.00000000       0.031
   0.00000000  0.05121028  0.00000000       0.031
   0.01478313  0.04267523  0.00000000       0.031
   0.02956627  0.03414018  0.00000000       0.031
   0.04434940  0.02560513  0.00000000       0.031
   0.05913253  0.01707009  0.00000000       0.031
  -0.04434940  0.07681542  0.00000000       0.031
  -0.02956627  0.06828037  0.00000000       0.031
  -0.01478313  0.05974532  0.00000000       0.031
   0.00000000  0.06828037  0.00000000       0.016
   0.01478313  0.05974532  0.00000000       0.031
   0.02956627  0.05121027  0.00000000       0.031
   0.04434940  0.04267523  0.00000000       0.031
   0.05913253  0.03414018  0.00000000       0.016
 
 k-points in reciprocal lattice and weights: Automatic mesh                          
   0.00000000  0.00000000  0.00000000       0.016
   0.12500000  0.00000000  0.00000000       0.031
   0.25000000  0.00000000  0.00000000       0.031
   0.37500000  0.00000000  0.00000000       0.031
   0.50000000  0.00000000  0.00000000       0.016
   0.00000000  0.12500000  0.00000000       0.031
   0.12500000  0.12500000  0.00000000       0.031
   0.25000000  0.12500000  0.00000000       0.031
   0.37500000  0.12500000  0.00000000       0.031
   0.50000000  0.12500000  0.00000000       0.031
  -0.37500000  0.12500000  0.00000000       0.031
  -0.25000000  0.12500000  0.00000000       0.031
  -0.12500000  0.12500000  0.00000000       0.031
   0.00000000  0.25000000  0.00000000       0.031
   0.12500000  0.25000000  0.00000000       0.031
   0.25000000  0.25000000  0.00000000       0.031
   0.37500000  0.25000000  0.00000000       0.031
   0.50000000  0.25000000  0.00000000       0.031
  -0.37500000  0.25000000  0.00000000       0.031
  -0.25000000  0.25000000  0.00000000       0.031
  -0.12500000  0.25000000  0.00000000       0.031
   0.00000000  0.37500000  0.00000000       0.031
   0.12500000  0.37500000  0.00000000       0.031
   0.25000000  0.37500000  0.00000000       0.031
   0.37500000  0.37500000  0.00000000       0.031
   0.50000000  0.37500000  0.00000000       0.031
  -0.37500000  0.37500000  0.00000000       0.031
  -0.25000000  0.37500000  0.00000000       0.031
  -0.12500000  0.37500000  0.00000000       0.031
   0.00000000  0.50000000  0.00000000       0.016
   0.12500000  0.50000000  0.00000000       0.031
   0.25000000  0.50000000  0.00000000       0.031
   0.37500000  0.50000000  0.00000000       0.031
   0.50000000  0.50000000  0.00000000       0.016
 
 position of ions in fractional coordinates (direct lattice) 
   0.00000000  0.00000000  0.37169254
   0.33333328  0.00000000  0.37169254
   0.66666669  0.00000000  0.37169254
   0.00000000  0.33333331  0.37169254
   0.33333334  0.33333331  0.37169254
   0.66666663  0.33333331  0.37169254
   0.00000000  0.66666663  0.37169254
   0.33333331  0.66666663  0.37169254
   0.66666669  0.66666663  0.37169254
   0.11111110  0.11111113  0.45723084
   0.44444445  0.11111113  0.45723084
   0.77777773  0.11111113  0.45723084
   0.11111113  0.44444442  0.45723084
   0.44444442  0.44444442  0.45723084
   0.77777767  0.44444442  0.45723084
   0.11111113  0.77777767  0.45723084
   0.44444442  0.77777767  0.45723084
   0.77777767  0.77777767  0.45723084
   0.21797505  0.22106980  0.54175963
   0.55307274  0.22379009  0.54346892
   0.88275096  0.22289113  0.54385166
   0.21991767  0.55661030  0.54328299
   0.55148900  0.55531066  0.54384983
   0.88529374  0.55478340  0.54224566
   0.21931453  0.88625233  0.54397625
   0.55139951  0.88896854  0.54227154
   0.88568696  0.88943028  0.54272235
   0.99143985  0.33199570  0.62865015
   0.32325407  0.32947141  0.62641096
   0.65679111  0.33583454  0.63626909
   0.32694341  0.66185908  0.63607413
   0.65949779  0.66717072  0.62766036
   0.99191397  0.66597415  0.62761225
   0.99228515  0.99956296  0.62926514
   0.32522515  0.99775899  0.62876712
   0.65887236  0.99967110  0.62779440
   0.31659611  0.48466951  0.79213616
   0.24930485  0.54725182  0.73845024
   0.39189795  0.57686314  0.71191825
   0.58071483  0.41120252  0.71268090
   0.59660685  0.24860696  0.74171966
   0.50296781  0.30290553  0.79386000
   0.21196785  0.46828253  0.81233554
   0.32699300  0.59441700  0.81130971
   0.11515258  0.67293770  0.73840764
   0.23051567  0.44143813  0.71970542
   0.39228939  0.69921111  0.72608317
   0.68452616  0.44727522  0.72325488
   0.53168807  0.18407595  0.72079391
   0.74159250  0.14358770  0.74566693
   0.59495292  0.32057325  0.81950801
   0.47896997  0.14488233  0.81324165
   0.61047579  0.01661003  0.81581048
   0.41523822  0.17648789  0.85029230
   0.39017598  0.12160409  0.78784359
 
 position of ions in cartesian coordinates  (Angst):
   0.00000000  0.00000000  9.99999949
   2.81852712  0.00000000  9.99999949
   5.63705525  0.00000000  9.99999949
   1.40926385  2.44091621  9.99999949
   4.22779147  2.44091621  9.99999949
   7.04631859  2.44091621  9.99999949
   2.81852770  4.88183242  9.99999949
   5.63705506  4.88183242  9.99999949
   8.45558295  4.88183242  9.99999949
   1.40926377  0.81363890 12.30131805
   4.22779146  0.81363890 12.30131805
   7.04631857  0.81363890 12.30131805
   2.81852778  3.25455495 12.30131805
   5.63705496  3.25455495 12.30131805
   8.45558183  3.25455495 12.30131805
   4.22779138  5.69547072 12.30131805
   7.04631856  5.69547072 12.30131805
   9.86484543  5.69547072 12.30131805
   2.77774309  1.61883866 14.57547686
   5.62269016  1.63875864 14.62146371
   8.40651096  1.63217584 14.63176097
   4.21276450  4.07591753 14.61646126
   7.01089864  4.06640059 14.63171157
   9.83118306  4.06253964 14.58855304
   5.60132243  6.48980340 14.63511272
   8.42077804  6.50969355 14.58924926
  11.24932525  6.51307472 14.60137792
   9.78681026  2.43112123 16.91317568
   4.12623802  2.41263650 16.85293256
   6.97339003  2.45923207 17.11815534
   5.56269946  4.84662799 17.11290995
   8.39709698  4.88552376 16.88654648
  11.20281055  4.87676155 16.88525211
  12.61629316  7.31954870 16.92972121
   6.96828541  7.30633869 16.91632260
   9.79755095  7.32034065 16.89015253
   4.72608630  3.54911318 21.31159587
   4.42168452  4.00738777 19.86723250
   5.75258273  4.22422401 19.15341696
   6.64876089  3.01113290 19.17393508
   6.09571702  1.82048641 19.95519256
   5.53350738  2.21810119 21.35797397
   3.77211269  3.42911548 21.85503917
   5.27798763  4.35276654 21.82744024
   3.81872266  4.92775393 19.86608627
   3.81545284  3.23254068 19.36292250
   6.27315439  5.12014752 19.53450929
   7.67905395  3.27528417 19.45841706
   5.27396718  1.34794199 19.39220725
   6.87765553  1.05145669 20.06138998
   6.38599057  2.34747748 22.04800691
   4.66250245  1.06093691 21.87941703
   5.23215220  0.12163110 21.94852875
   4.25723507  1.29237650 22.87622612
   3.81328200  0.89047624 21.19610885
 


--------------------------------------------------------------------------------------------------------


 k-point  1 :   0.0000 0.0000 0.0000  plane waves:   29865
 k-point  2 :   0.1250 0.0000 0.0000  plane waves:   29830
 k-point  3 :   0.2500 0.0000 0.0000  plane waves:   29798
 k-point  4 :   0.3750 0.0000 0.0000  plane waves:   29786
 k-point  5 :   0.5000 0.0000 0.0000  plane waves:   29806
 k-point  6 :   0.0000 0.1250 0.0000  plane waves:   29830
 k-point  7 :   0.1250 0.1250 0.0000  plane waves:   29830
 k-point  8 :   0.2500 0.1250 0.0000  plane waves:   29817
 k-point  9 :   0.3750 0.1250 0.0000  plane waves:   29820
 k-point 10 :   0.5000 0.1250 0.0000  plane waves:   29812
 k-point 11 :  -0.3750 0.1250 0.0000  plane waves:   29812
 k-point 12 :  -0.2500 0.1250 0.0000  plane waves:   29820
 k-point 13 :  -0.1250 0.1250 0.0000  plane waves:   29817
 k-point 14 :   0.0000 0.2500 0.0000  plane waves:   29798
 k-point 15 :   0.1250 0.2500 0.0000  plane waves:   29817
 k-point 16 :   0.2500 0.2500 0.0000  plane waves:   29798
 k-point 17 :   0.3750 0.2500 0.0000  plane waves:   29820
 k-point 18 :   0.5000 0.2500 0.0000  plane waves:   29770
 k-point 19 :  -0.3750 0.2500 0.0000  plane waves:   29794
 k-point 20 :  -0.2500 0.2500 0.0000  plane waves:   29770
 k-point 21 :  -0.1250 0.2500 0.0000  plane waves:   29820
 k-point 22 :   0.0000 0.3750 0.0000  plane waves:   29786
 k-point 23 :   0.1250 0.3750 0.0000  plane waves:   29820
 k-point 24 :   0.2500 0.3750 0.0000  plane waves:   29820
 k-point 25 :   0.3750 0.3750 0.0000  plane waves:   29786
 k-point 26 :   0.5000 0.3750 0.0000  plane waves:   29812
 k-point 27 :  -0.3750 0.3750 0.0000  plane waves:   29794
 k-point 28 :  -0.2500 0.3750 0.0000  plane waves:   29794
 k-point 29 :  -0.1250 0.3750 0.0000  plane waves:   29812
 k-point 30 :   0.0000 0.5000 0.0000  plane waves:   29806
 k-point 31 :   0.1250 0.5000 0.0000  plane waves:   29812
 k-point 32 :   0.2500 0.5000 0.0000  plane waves:   29770
 k-point 33 :   0.3750 0.5000 0.0000  plane waves:   29812
 k-point 34 :   0.5000 0.5000 0.0000  plane waves:   29806

 maximum and minimum number of plane-waves per node :      3750     3698

 maximum number of plane-waves:     29865
 maximum index in each direction: 
   IXMAX=   14   IYMAX=   13   IZMAX=   43
   IXMIN=  -14   IYMIN=  -14   IZMIN=  -43


 real space projection operators:
  total allocation   :      34894.27 KBytes
  max/ min on nodes  :       4365.22       4356.79


 parallel 3D FFT for wavefunctions:
    minimum data exchange during FFTs selected (reduces bandwidth)
 parallel 3D FFT for charge:
    minimum data exchange during FFTs selected (reduces bandwidth)


 total amount of memory used by VASP MPI-rank0   126970. kBytes
=======================================================================

   base      :      30000. kBytes
   nonlr-proj:      11441. kBytes
   fftplans  :      13445. kBytes
   grid      :       9308. kBytes
   one-center:        108. kBytes
   wavefun   :      62668. kBytes
 
     INWAV:  cpu time    0.0001: real time    0.0001
 Broyden mixing: mesh for mixing (old mesh)
   NGX = 27   NGY = 27   NGZ = 87
  (NGX  =112   NGY  =112   NGZ  =360)
  gives a total of  63423 points

 initial charge density was supplied:
 charge density of overlapping atoms calculated
 number of electron     400.0000000 magnetization 
 keeping initial charge density in first step


--------------------------------------------------------------------------------------------------------


 Maximum index for non-local projection operator          822
 Maximum index for augmentation-charges         4814 (set IRDMAX)


--------------------------------------------------------------------------------------------------------


 First call to EWALD:  gamma=   0.150
 Maximum number of real-space cells 4x 4x 1
 Maximum number of reciprocal cells 2x 2x 6

    FEWALD:  cpu time    0.0082: real time    0.0082


--------------------------------------- Iteration      1(   1)  ---------------------------------------


vdW kernel read from vdw_kernel.bindat
  0.0000  0.2424  0.5071  0.7962  1.1119  1.4567  1.8333  2.2446  2.6937  3.1842
  3.7199  4.3049  4.9438  5.6415  6.4036  7.2358  8.1446  9.1372 10.2212 11.4050
 12.6979 14.1099 15.6519 17.3360 19.1751 21.1837 23.3773 25.7729 28.3892 31.2465
 34.3669 37.7748 41.4965 45.5611 50.0000
 
    POTLOK:  cpu time    5.2347: real time    5.3720
    SETDIJ:  cpu time    0.1313: real time    0.1316
     EDDAV:  cpu time   48.5616: real time   48.5705
       DOS:  cpu time    0.0168: real time    0.0169
    --------------------------------------------
      LOOP:  cpu time   53.9445: real time   54.0910

 eigenvalue-minimisations  : 16416
 total energy-change (2. order) : 0.3518231E+04  (-0.1435759E+05)
 number of electron     400.0000000 magnetization 
 augmentation part      400.0000000 magnetization 

 Free energy of the ion-electron system (eV)
  ---------------------------------------------------
  alpha Z        PSCENC =      1298.95982110
  Ewald energy   TEWEN  =    154292.17555342
  -Hartree energ DENC   =   -183026.43365300
  -exchange      EXHF   =         0.00000000
  -V(xc)+E(xc)   XCENC  =       215.05220220
  PAW double counting   =     20938.56416657   -19893.49302636
  entropy T*S    EENTRO =        -0.00528594
  eigenvalues    EBANDS =      2185.83051869
  atomic energy  EATOM  =     27507.58070796
  Solvation  Ediel_sol  =         0.00000000
  ---------------------------------------------------
  free energy    TOTEN  =      3518.23100465 eV

  energy without entropy =     3518.23629059  energy(sigma->0) =     3518.23232613


--------------------------------------------------------------------------------------------------------




--------------------------------------- Iteration      1(   2)  ---------------------------------------


     EDDAV:  cpu time   49.5812: real time   49.6087
       DOS:  cpu time    0.0167: real time    0.0167
    --------------------------------------------
      LOOP:  cpu time   49.5978: real time   49.6253

 eigenvalue-minimisations  : 16992
 total energy-change (2. order) :-0.3329639E+04  (-0.3062251E+04)
 number of electron     400.0000000 magnetization 
 augmentation part      400.0000000 magnetization 

 Free energy of the ion-electron system (eV)
  ---------------------------------------------------
  alpha Z        PSCENC =      1298.95982110
  Ewald energy   TEWEN  =    154292.17555342
  -Hartree energ DENC   =   -183026.43365300
  -exchange      EXHF   =         0.00000000
  -V(xc)+E(xc)   XCENC  =       215.05220220
  PAW double counting   =     20938.56416657   -19893.49302636
  entropy T*S    EENTRO =         0.00124906
  eigenvalues    EBANDS =     -1143.81504559
  atomic energy  EATOM  =     27507.58070796
  Solvation  Ediel_sol  =         0.00000000
  ---------------------------------------------------
  free energy    TOTEN  =       188.59197537 eV

  energy without entropy =      188.59072631  energy(sigma->0) =      188.59166311


--------------------------------------------------------------------------------------------------------




--------------------------------------- Iteration      1(   3)  ---------------------------------------


     EDDAV:  cpu time   61.3849: real time   61.4560
       DOS:  cpu time    0.0192: real time    0.0192
    --------------------------------------------
      LOOP:  cpu time   61.4041: real time   61.4752

 eigenvalue-minimisations  : 22192
 total energy-change (2. order) :-0.4328665E+03  (-0.4027994E+03)
 number of electron     400.0000000 magnetization 
 augmentation part      400.0000000 magnetization 

 Free energy of the ion-electron system (eV)
  ---------------------------------------------------
  alpha Z        PSCENC =      1298.95982110
  Ewald energy   TEWEN  =    154292.17555342
  -Hartree energ DENC   =   -183026.43365300
  -exchange      EXHF   =         0.00000000
  -V(xc)+E(xc)   XCENC  =       215.05220220
  PAW double counting   =     20938.56416657   -19893.49302636
  entropy T*S    EENTRO =        -0.00488264
  eigenvalues    EBANDS =     -1576.67543184
  atomic energy  EATOM  =     27507.58070796
  Solvation  Ediel_sol  =         0.00000000
  ---------------------------------------------------
  free energy    TOTEN  =      -244.27454258 eV

  energy without entropy =     -244.26965994  energy(sigma->0) =     -244.27332192


--------------------------------------------------------------------------------------------------------




--------------------------------------- Iteration      1(   4)  ---------------------------------------


     EDDAV:  cpu time   64.8852: real time   64.9171
       DOS:  cpu time    0.0197: real time    0.0197
    --------------------------------------------
      LOOP:  cpu time   64.9049: real time   64.9367

 eigenvalue-minimisations  : 23776
 total energy-change (2. order) :-0.3319423E+02  (-0.3004044E+02)
 number of electron     400.0000000 magnetization 
 augmentation part      400.0000000 magnetization 

 Free energy of the ion-electron system (eV)
  ---------------------------------------------------
  alpha Z        PSCENC =      1298.95982110
  Ewald energy   TEWEN  =    154292.17555342
  -Hartree energ DENC   =   -183026.43365300
  -exchange      EXHF   =         0.00000000
  -V(xc)+E(xc)   XCENC  =       215.05220220
  PAW double counting   =     20938.56416657   -19893.49302636
  entropy T*S    EENTRO =        -0.07272401
  eigenvalues    EBANDS =     -1609.80182502
  atomic energy  EATOM  =     27507.58070796
  Solvation  Ediel_sol  =         0.00000000
  ---------------------------------------------------
  free energy    TOTEN  =      -277.46877713 eV

  energy without entropy =     -277.39605312  energy(sigma->0) =     -277.45059613


--------------------------------------------------------------------------------------------------------




--------------------------------------- Iteration      1(   5)  ---------------------------------------


     EDDAV:  cpu time   62.2430: real time   62.2573
       DOS:  cpu time    0.0201: real time    0.0201
    CHARGE:  cpu time    3.0324: real time    3.0328
    MIXING:  cpu time    0.0117: real time    0.0127
    --------------------------------------------
      LOOP:  cpu time   65.3071: real time   65.3228

 eigenvalue-minimisations  : 22616
 total energy-change (2. order) :-0.1081686E+01  (-0.1056019E+01)
 number of electron     400.0000006 magnetization 
 augmentation part      106.6548105 magnetization 

 Broyden mixing:
  rms(total) = 0.27799E+01    rms(broyden)= 0.27794E+01
  rms(prec ) = 0.30020E+01
  weight for this iteration     100.00

 Free energy of the ion-electron system (eV)
  ---------------------------------------------------
  alpha Z        PSCENC =      1298.95982110
  Ewald energy   TEWEN  =    154292.17555342
  -Hartree energ DENC   =   -183026.43365300
  -exchange      EXHF   =         0.00000000
  -V(xc)+E(xc)   XCENC  =       215.05220220
  PAW double counting   =     20938.56416657   -19893.49302636
  entropy T*S    EENTRO =        -0.07590087
  eigenvalues    EBANDS =     -1610.88033388
  atomic energy  EATOM  =     27507.58070796
  Solvation  Ediel_sol  =         0.00000000
  ---------------------------------------------------
  free energy    TOTEN  =      -278.55046286 eV

  energy without entropy =     -278.47456199  energy(sigma->0) =     -278.53148764


--------------------------------------------------------------------------------------------------------




--------------------------------------- Iteration      1(   6)  ---------------------------------------


    POTLOK:  cpu time    3.6806: real time    3.7087
    SETDIJ:  cpu time    0.1306: real time    0.1305
    EDDIAG:  cpu time    8.8146: real time    8.8165
  RMM-DIIS:  cpu time   25.8544: real time   25.8560
    ORTHCH:  cpu time    1.0516: real time    1.0517
       DOS:  cpu time    0.0226: real time    0.0226
    CHARGE:  cpu time    3.0369: real time    3.0371
    MIXING:  cpu time    0.0057: real time    0.0065
    --------------------------------------------
      LOOP:  cpu time   42.5971: real time   42.6295

 eigenvalue-minimisations  : 18320
 total energy-change (2. order) : 0.8509527E+01  (-0.1388251E+01)
 number of electron     400.0000006 magnetization 
 augmentation part      109.0056245 magnetization 

 Broyden mixing:
  rms(total) = 0.22361E+01    rms(broyden)= 0.22360E+01
  rms(prec ) = 0.26627E+01
  weight for this iteration     100.00

 eigenvalues of (default mixing * dielectric matrix)
  average eigenvalue GAMMA=   1.0605
  1.0605

 Free energy of the ion-electron system (eV)
  ---------------------------------------------------
  alpha Z        PSCENC =      1298.95982110
  Ewald energy   TEWEN  =    154292.17555342
  -Hartree energ DENC   =   -182719.33096952
  -exchange      EXHF   =         0.00000000
  -V(xc)+E(xc)   XCENC  =       213.01932246
  PAW double counting   =     20937.61860381   -19937.25625181
  entropy T*S    EENTRO =         0.01002508
  eigenvalues    EBANDS =     -1862.81774793
  atomic energy  EATOM  =     27507.58070796
  Solvation  Ediel_sol  =         0.00000000
  ---------------------------------------------------
  free energy    TOTEN  =      -270.04093543 eV

  energy without entropy =     -270.05096051  energy(sigma->0) =     -270.04344170


--------------------------------------------------------------------------------------------------------




--------------------------------------- Iteration      1(   7)  ---------------------------------------


    POTLOK:  cpu time    3.6714: real time    3.7008
    SETDIJ:  cpu time    0.1295: real time    0.1295
    EDDIAG:  cpu time    8.8131: real time    8.8135
  RMM-DIIS:  cpu time   25.3970: real time   25.3982
    ORTHCH:  cpu time    1.0509: real time    1.0509
       DOS:  cpu time    0.0217: real time    0.0217
    CHARGE:  cpu time    3.0334: real time    3.0335
    MIXING:  cpu time    0.0054: real time    0.0054
    --------------------------------------------
      LOOP:  cpu time   42.1223: real time   42.1536

 eigenvalue-minimisations  : 18220
 total energy-change (2. order) :-0.9278071E+01  (-0.1833231E+01)
 number of electron     400.0000006 magnetization 
 augmentation part      108.3107302 magnetization 

 Broyden mixing:
  rms(total) = 0.27500E+01    rms(broyden)= 0.27499E+01
  rms(prec ) = 0.43514E+01
  weight for this iteration     100.00

 eigenvalues of (default mixing * dielectric matrix)
  average eigenvalue GAMMA=   0.9640
  1.7095  0.2186

 Free energy of the ion-electron system (eV)
  ---------------------------------------------------
  alpha Z        PSCENC =      1298.95982110
  Ewald energy   TEWEN  =    154292.17555342
  -Hartree energ DENC   =   -182860.98659259
  -exchange      EXHF   =         0.00000000
  -V(xc)+E(xc)   XCENC  =       212.40232691
  PAW double counting   =     21047.10312041   -20061.46862251
  entropy T*S    EENTRO =        -0.03821813
  eigenvalues    EBANDS =     -1715.04710302
  atomic energy  EATOM  =     27507.58070796
  Solvation  Ediel_sol  =         0.00000000
  ---------------------------------------------------
  free energy    TOTEN  =      -279.31900644 eV

  energy without entropy =     -279.28078831  energy(sigma->0) =     -279.30945191


--------------------------------------------------------------------------------------------------------




--------------------------------------- Iteration      1(   8)  ---------------------------------------


    POTLOK:  cpu time    3.6712: real time    3.6980
    SETDIJ:  cpu time    0.1289: real time    0.1288
    EDDIAG:  cpu time    8.8135: real time    8.8139
  RMM-DIIS:  cpu time   25.5450: real time   25.5463
    ORTHCH:  cpu time    1.0462: real time    1.0462
       DOS:  cpu time    0.0223: real time    0.0223
    CHARGE:  cpu time    3.0425: real time    3.0426
    MIXING:  cpu time    0.0055: real time    0.0055
    --------------------------------------------
      LOOP:  cpu time   42.2750: real time   42.3036

 eigenvalue-minimisations  : 18245
 total energy-change (2. order) : 0.4704449E+01  (-0.1532208E+01)
 number of electron     400.0000006 magnetization 
 augmentation part      109.1796701 magnetization 

 Broyden mixing:
  rms(total) = 0.25137E+01    rms(broyden)= 0.25134E+01
  rms(prec ) = 0.37250E+01
  weight for this iteration     100.00

 eigenvalues of (default mixing * dielectric matrix)
  average eigenvalue GAMMA=   1.0686
  2.7262  0.3353  0.1443

 Free energy of the ion-electron system (eV)
  ---------------------------------------------------
  alpha Z        PSCENC =      1298.95982110
  Ewald energy   TEWEN  =    154292.17555342
  -Hartree energ DENC   =   -182924.35190610
  -exchange      EXHF   =         0.00000000
  -V(xc)+E(xc)   XCENC  =       211.72881947
  PAW double counting   =     21125.62451900   -20153.94365098
  entropy T*S    EENTRO =         0.01474226
  eigenvalues    EBANDS =     -1632.40316395
  atomic energy  EATOM  =     27507.58070796
  Solvation  Ediel_sol  =         0.00000000
  ---------------------------------------------------
  free energy    TOTEN  =      -274.61455782 eV

  energy without entropy =     -274.62930007  energy(sigma->0) =     -274.61824338


--------------------------------------------------------------------------------------------------------




--------------------------------------- Iteration      1(   9)  ---------------------------------------


    POTLOK:  cpu time    3.6696: real time    3.6955
    SETDIJ:  cpu time    0.1295: real time    0.1295
    EDDIAG:  cpu time    8.8125: real time    8.8129
  RMM-DIIS:  cpu time   23.3465: real time   23.3476
    ORTHCH:  cpu time    1.0392: real time    1.0393
       DOS:  cpu time    0.0221: real time    0.0221
    CHARGE:  cpu time    3.0056: real time    3.0057
    MIXING:  cpu time    0.0055: real time    0.0055
    --------------------------------------------
      LOOP:  cpu time   40.0305: real time   40.0581

 eigenvalue-minimisations  : 16564
 total energy-change (2. order) : 0.1910054E+02  (-0.1615035E+01)
 number of electron     400.0000006 magnetization 
 augmentation part      112.5515353 magnetization 

 Broyden mixing:
  rms(total) = 0.12678E+01    rms(broyden)= 0.12676E+01
  rms(prec ) = 0.15685E+01
  weight for this iteration     100.00

 eigenvalues of (default mixing * dielectric matrix)
  average eigenvalue GAMMA=   1.0242
  2.7772  0.7102  0.4718  0.1376

 Free energy of the ion-electron system (eV)
  ---------------------------------------------------
  alpha Z        PSCENC =      1298.95982110
  Ewald energy   TEWEN  =    154292.17555342
  -Hartree energ DENC   =   -182688.64096631
  -exchange      EXHF   =         0.00000000
  -V(xc)+E(xc)   XCENC  =       209.93476121
  PAW double counting   =     21362.76907074   -20428.81447319
  entropy T*S    EENTRO =        -0.04024475
  eigenvalues    EBANDS =     -1809.43824613
  atomic energy  EATOM  =     27507.58070796
  Solvation  Ediel_sol  =         0.00000000
  ---------------------------------------------------
  free energy    TOTEN  =      -255.51401596 eV

  energy without entropy =     -255.47377120  energy(sigma->0) =     -255.50395477


--------------------------------------------------------------------------------------------------------




--------------------------------------- Iteration      1(  10)  ---------------------------------------


    POTLOK:  cpu time    3.6738: real time    3.7008
    SETDIJ:  cpu time    0.1280: real time    0.1280
    EDDIAG:  cpu time    8.8186: real time    8.8190
  RMM-DIIS:  cpu time   27.7591: real time   27.7604
    ORTHCH:  cpu time    1.0490: real time    1.0491
       DOS:  cpu time    0.0229: real time    0.0229
    CHARGE:  cpu time    3.0075: real time    3.0077
    MIXING:  cpu time    0.0055: real time    0.0055
    --------------------------------------------
      LOOP:  cpu time   44.4644: real time   44.4934

 eigenvalue-minimisations  : 19744
 total energy-change (2. order) : 0.1380057E+01  (-0.3668843E+00)
 number of electron     400.0000006 magnetization 
 augmentation part      113.2290183 magnetization 

 Broyden mixing:
  rms(total) = 0.78401E+00    rms(broyden)= 0.78393E+00
  rms(prec ) = 0.11112E+01
  weight for this iteration     100.00

 eigenvalues of (default mixing * dielectric matrix)
  average eigenvalue GAMMA=   1.0374
  2.6042  1.4764  0.5062  0.4613  0.1390

 Free energy of the ion-electron system (eV)
  ---------------------------------------------------
  alpha Z        PSCENC =      1298.95982110
  Ewald energy   TEWEN  =    154292.17555342
  -Hartree energ DENC   =   -182685.52246414
  -exchange      EXHF   =         0.00000000
  -V(xc)+E(xc)   XCENC  =       210.10240551
  PAW double counting   =     21467.00029046   -20525.76921167
  entropy T*S    EENTRO =        -0.05761405
  eigenvalues    EBANDS =     -1818.60344762
  atomic energy  EATOM  =     27507.58070796
  Solvation  Ediel_sol  =         0.00000000
  ---------------------------------------------------
  free energy    TOTEN  =      -254.13395903 eV

  energy without entropy =     -254.07634497  energy(sigma->0) =     -254.11955551


--------------------------------------------------------------------------------------------------------




--------------------------------------- Iteration      1(  11)  ---------------------------------------


    POTLOK:  cpu time    3.6769: real time    3.7040
    SETDIJ:  cpu time    0.1303: real time    0.1303
    EDDIAG:  cpu time    8.8978: real time    8.8982
  RMM-DIIS:  cpu time   24.0292: real time   24.0303
    ORTHCH:  cpu time    1.0526: real time    1.0526
       DOS:  cpu time    0.0228: real time    0.0228
    CHARGE:  cpu time    3.0530: real time    3.0531
    MIXING:  cpu time    0.0056: real time    0.0056
    --------------------------------------------
      LOOP:  cpu time   40.8681: real time   40.8970

 eigenvalue-minimisations  : 17127
 total energy-change (2. order) : 0.4935547E+00  (-0.1343592E+00)
 number of electron     400.0000006 magnetization 
 augmentation part      113.5036196 magnetization 

 Broyden mixing:
  rms(total) = 0.40638E+00    rms(broyden)= 0.40629E+00
  rms(prec ) = 0.50610E+00
  weight for this iteration     100.00

 eigenvalues of (default mixing * dielectric matrix)
  average eigenvalue GAMMA=   1.1581
  2.8674  2.1740  0.8660  0.1390  0.4510  0.4510

 Free energy of the ion-electron system (eV)
  ---------------------------------------------------
  alpha Z        PSCENC =      1298.95982110
  Ewald energy   TEWEN  =    154292.17555342
  -Hartree energ DENC   =   -182755.81492369
  -exchange      EXHF   =         0.00000000
  -V(xc)+E(xc)   XCENC  =       210.47254874
  PAW double counting   =     21610.29283225   -20657.59884425
  entropy T*S    EENTRO =        -0.03454240
  eigenvalues    EBANDS =     -1759.67355749
  atomic energy  EATOM  =     27507.58070796
  Solvation  Ediel_sol  =         0.00000000
  ---------------------------------------------------
  free energy    TOTEN  =      -253.64040436 eV

  energy without entropy =     -253.60586197  energy(sigma->0) =     -253.63176876


--------------------------------------------------------------------------------------------------------




--------------------------------------- Iteration      1(  12)  ---------------------------------------


    POTLOK:  cpu time    3.6703: real time    3.7144
    SETDIJ:  cpu time    0.1272: real time    0.1273
    EDDIAG:  cpu time    8.9015: real time    8.9019
  RMM-DIIS:  cpu time   24.0656: real time   24.0668
    ORTHCH:  cpu time    1.0496: real time    1.0496
       DOS:  cpu time    0.0232: real time    0.0232
    CHARGE:  cpu time    3.0594: real time    3.0596
    MIXING:  cpu time    0.0061: real time    0.0061
    --------------------------------------------
      LOOP:  cpu time   40.9030: real time   40.9489

 eigenvalue-minimisations  : 17111
 total energy-change (2. order) : 0.1217811E+00  (-0.7459911E-01)
 number of electron     400.0000006 magnetization 
 augmentation part      113.8829107 magnetization 

 Broyden mixing:
  rms(total) = 0.25249E+00    rms(broyden)= 0.25248E+00
  rms(prec ) = 0.29149E+00
  weight for this iteration     100.00

 eigenvalues of (default mixing * dielectric matrix)
  average eigenvalue GAMMA=   1.2022
  3.2354  2.2412  1.1385  0.7591  0.1390  0.4511  0.4511

 Free energy of the ion-electron system (eV)
  ---------------------------------------------------
  alpha Z        PSCENC =      1298.95982110
  Ewald energy   TEWEN  =    154292.17555342
  -Hartree energ DENC   =   -182810.99574230
  -exchange      EXHF   =         0.00000000
  -V(xc)+E(xc)   XCENC  =       210.78971738
  PAW double counting   =     21739.27248068   -20781.26604801
  entropy T*S    EENTRO =        -0.03959124
  eigenvalues    EBANDS =     -1709.99552227
  atomic energy  EATOM  =     27507.58070796
  Solvation  Ediel_sol  =         0.00000000
  ---------------------------------------------------
  free energy    TOTEN  =      -253.51862327 eV

  energy without entropy =     -253.47903204  energy(sigma->0) =     -253.50872546


--------------------------------------------------------------------------------------------------------




--------------------------------------- Iteration      1(  13)  ---------------------------------------


    POTLOK:  cpu time    3.6705: real time    3.6966
    SETDIJ:  cpu time    0.1283: real time    0.1282
    EDDIAG:  cpu time    8.8931: real time    8.8935
  RMM-DIIS:  cpu time   26.4837: real time   26.4850
    ORTHCH:  cpu time    1.0652: real time    1.0652
       DOS:  cpu time    0.0232: real time    0.0232
    CHARGE:  cpu time    3.0633: real time    3.0635
    MIXING:  cpu time    0.0058: real time    0.0058
    --------------------------------------------
      LOOP:  cpu time   43.3330: real time   43.3610

 eigenvalue-minimisations  : 18890
 total energy-change (2. order) : 0.1771681E-01  (-0.2165105E-01)
 number of electron     400.0000006 magnetization 
 augmentation part      114.0935243 magnetization 

 Broyden mixing:
  rms(total) = 0.19040E+00    rms(broyden)= 0.19040E+00
  rms(prec ) = 0.20789E+00
  weight for this iteration     100.00

 eigenvalues of (default mixing * dielectric matrix)
  average eigenvalue GAMMA=   1.2366
  3.2447  2.6572  1.5826  0.8449  0.1390  0.4761  0.4761  0.4719

 Free energy of the ion-electron system (eV)
  ---------------------------------------------------
  alpha Z        PSCENC =      1298.95982110
  Ewald energy   TEWEN  =    154292.17555342
  -Hartree energ DENC   =   -182830.83453631
  -exchange      EXHF   =         0.00000000
  -V(xc)+E(xc)   XCENC  =       211.07796205
  PAW double counting   =     21782.34255739   -20821.82880580
  entropy T*S    EENTRO =        -0.04121905
  eigenvalues    EBANDS =     -1692.93294722
  atomic energy  EATOM  =     27507.58070796
  Solvation  Ediel_sol  =         0.00000000
  ---------------------------------------------------
  free energy    TOTEN  =      -253.50090646 eV

  energy without entropy =     -253.45968741  energy(sigma->0) =     -253.49060170


--------------------------------------------------------------------------------------------------------




--------------------------------------- Iteration      1(  14)  ---------------------------------------


    POTLOK:  cpu time    3.6680: real time    3.6961
    SETDIJ:  cpu time    0.1284: real time    0.1284
    EDDIAG:  cpu time    8.8808: real time    8.8812
  RMM-DIIS:  cpu time   23.6208: real time   23.6218
    ORTHCH:  cpu time    1.0631: real time    1.0632
       DOS:  cpu time    0.0225: real time    0.0225
    CHARGE:  cpu time    3.0578: real time    3.0579
    MIXING:  cpu time    0.0060: real time    0.0060
    --------------------------------------------
      LOOP:  cpu time   40.4474: real time   40.4771

 eigenvalue-minimisations  : 16712
 total energy-change (2. order) : 0.1608038E-01  (-0.7527324E-02)
 number of electron     400.0000006 magnetization 
 augmentation part      114.1473296 magnetization 

 Broyden mixing:
  rms(total) = 0.12712E+00    rms(broyden)= 0.12711E+00
  rms(prec ) = 0.14576E+00
  weight for this iteration     100.00

 eigenvalues of (default mixing * dielectric matrix)
  average eigenvalue GAMMA=   1.3665
  3.5959  3.5959  1.7339  1.0563  0.1390  0.7741  0.4482  0.4482  0.5070

 Free energy of the ion-electron system (eV)
  ---------------------------------------------------
  alpha Z        PSCENC =      1298.95982110
  Ewald energy   TEWEN  =    154292.17555342
  -Hartree energ DENC   =   -182852.58777281
  -exchange      EXHF   =         0.00000000
  -V(xc)+E(xc)   XCENC  =       211.47490407
  PAW double counting   =     21801.49931998   -20838.38719291
  entropy T*S    EENTRO =        -0.03995104
  eigenvalues    EBANDS =     -1674.16021585
  atomic energy  EATOM  =     27507.58070796
  Solvation  Ediel_sol  =         0.00000000
  ---------------------------------------------------
  free energy    TOTEN  =      -253.48482608 eV

  energy without entropy =     -253.44487504  energy(sigma->0) =     -253.47483832


--------------------------------------------------------------------------------------------------------




--------------------------------------- Iteration      1(  15)  ---------------------------------------


    POTLOK:  cpu time    3.6684: real time    3.7004
    SETDIJ:  cpu time    0.1273: real time    0.1273
    EDDIAG:  cpu time    8.8919: real time    8.8923
  RMM-DIIS:  cpu time   23.2601: real time   23.2611
    ORTHCH:  cpu time    1.0510: real time    1.0511
       DOS:  cpu time    0.0227: real time    0.0227
    CHARGE:  cpu time    3.0633: real time    3.0635
    MIXING:  cpu time    0.0060: real time    0.0061
    --------------------------------------------
      LOOP:  cpu time   40.0907: real time   40.1244

 eigenvalue-minimisations  : 16393
 total energy-change (2. order) : 0.1040799E-01  (-0.7134174E-02)
 number of electron     400.0000006 magnetization 
 augmentation part      114.0712000 magnetization 

 Broyden mixing:
  rms(total) = 0.78420E-01    rms(broyden)= 0.78414E-01
  rms(prec ) = 0.98193E-01
  weight for this iteration     100.00

 eigenvalues of (default mixing * dielectric matrix)
  average eigenvalue GAMMA=   1.3863
  3.8521  3.8521  1.7092  1.3463  0.8921  0.1390  0.6846  0.4508  0.4508  0.4859

 Free energy of the ion-electron system (eV)
  ---------------------------------------------------
  alpha Z        PSCENC =      1298.95982110
  Ewald energy   TEWEN  =    154292.17555342
  -Hartree energ DENC   =   -182882.05578386
  -exchange      EXHF   =         0.00000000
  -V(xc)+E(xc)   XCENC  =       212.03990138
  PAW double counting   =     21810.85396526   -20844.47279161
  entropy T*S    EENTRO =        -0.04174063
  eigenvalues    EBANDS =     -1648.51405113
  atomic energy  EATOM  =     27507.58070796
  Solvation  Ediel_sol  =         0.00000000
  ---------------------------------------------------
  free energy    TOTEN  =      -253.47441810 eV

  energy without entropy =     -253.43267747  energy(sigma->0) =     -253.46398294


--------------------------------------------------------------------------------------------------------




--------------------------------------- Iteration      1(  16)  ---------------------------------------


    POTLOK:  cpu time    3.6796: real time    3.6985
    SETDIJ:  cpu time    0.1277: real time    0.1277
    EDDIAG:  cpu time    8.8754: real time    8.8758
  RMM-DIIS:  cpu time   25.7640: real time   25.7651
    ORTHCH:  cpu time    1.0617: real time    1.0618
       DOS:  cpu time    0.0238: real time    0.0238
    CHARGE:  cpu time    3.0067: real time    3.0068
[...]


 soft charge-density along one line, spin component           1
         0         1         2         3         4         5         6         7         8         9
 total charge-density along one line
 
 pseudopotential strength for first ion, spin component:           1
-10.513  -0.001  -0.000  -0.011   0.000   0.143   0.000   0.000
 -0.001 -10.402  -0.000  -0.000  -0.010   0.000   0.129   0.000
 -0.000  -0.000 -10.392  -0.001  -0.000   0.000   0.000   0.127
 -0.011  -0.000  -0.001 -10.402  -0.001   0.001   0.000   0.000
  0.000  -0.010  -0.000  -0.001 -10.513  -0.000   0.001   0.000
  0.143   0.000   0.000   0.001  -0.000   0.181  -0.000  -0.000
  0.000   0.129   0.000   0.000   0.001  -0.000   0.183  -0.000
  0.000   0.000   0.127   0.000   0.000  -0.000  -0.000   0.183
  0.001   0.000   0.000   0.129   0.000  -0.000  -0.000  -0.000
 -0.000   0.001   0.000   0.000   0.143   0.000  -0.000  -0.000
  0.000   0.000  -0.034   0.000  -0.000  -0.000  -0.000   0.003
 -0.000  -0.000   0.002  -0.000   0.000   0.000   0.000  -0.000
 -0.000  -0.002   0.000  -0.000   0.001   0.000   0.001  -0.000
 -0.000  -0.000  -0.005  -0.000  -0.000  -0.000   0.000   0.001
  0.000  -0.000   0.000  -0.002  -0.000   0.000  -0.000  -0.000
  0.000   0.004  -0.000  -0.000  -0.000  -0.000  -0.001   0.000
 -0.000   0.000   0.005   0.000  -0.000   0.000  -0.000  -0.001
 -0.000  -0.000  -0.000   0.004   0.000   0.000   0.000   0.000
 total augmentation occupancy for first ion, spin component:           1
  1.650  -0.001  -0.001  -0.053   0.002   0.127   0.001   0.001   0.037  -0.001   0.000  -0.000   0.000   0.001   0.001  -0.000
 -0.001   1.833  -0.000  -0.002  -0.052   0.001  -0.021   0.000   0.001   0.039   0.001   0.000  -0.011  -0.000   0.001  -0.000
 -0.001  -0.000   1.772  -0.003  -0.001   0.001   0.000   0.031   0.002   0.001   0.046  -0.007   0.000   0.034   0.001   0.000
 -0.053  -0.002  -0.003   1.832  -0.001   0.040   0.001   0.002  -0.020   0.001   0.002   0.001   0.000   0.001  -0.010  -0.000
  0.002  -0.052  -0.001  -0.001   1.649  -0.001   0.036   0.001   0.001   0.128  -0.000  -0.000   0.001   0.000  -0.000   0.000
  0.127   0.001   0.001   0.040  -0.001   0.209  -0.001  -0.001   0.004   0.000   0.000   0.000  -0.000  -0.000   0.011  -0.000
  0.001  -0.021   0.000   0.001   0.036  -0.001   0.180  -0.001  -0.001   0.004  -0.000   0.000   0.056  -0.000  -0.000  -0.003
  0.001   0.000   0.031   0.002   0.001  -0.001  -0.001   0.234  -0.002  -0.000  -0.168   0.029  -0.000   0.085  -0.000   0.000
  0.037   0.001   0.002  -0.020   0.001   0.004  -0.001  -0.002   0.179  -0.001   0.001   0.000  -0.000  -0.001   0.056   0.000
 -0.001   0.039   0.001   0.001   0.128   0.000   0.004  -0.000  -0.001   0.209   0.000   0.000   0.011  -0.000  -0.000  -0.000
  0.000   0.001   0.046   0.002  -0.000   0.000  -0.000  -0.168   0.001   0.000   1.131  -0.293   0.000   0.064   0.000  -0.000
 -0.000   0.000  -0.007   0.001  -0.000   0.000   0.000   0.029   0.000   0.000  -0.293   0.124   0.000  -0.054   0.000  -0.000
  0.000  -0.011   0.000   0.000   0.001  -0.000   0.056  -0.000  -0.000   0.011   0.000   0.000   0.173  -0.000  -0.000  -0.007
  0.001  -0.000   0.034   0.001   0.000  -0.000  -0.000   0.085  -0.001  -0.000   0.064  -0.054  -0.000   0.096  -0.000   0.000
  0.001   0.001   0.001  -0.010  -0.000   0.011  -0.000  -0.000   0.056  -0.000   0.000   0.000  -0.000  -0.000   0.173   0.000
 -0.000  -0.000   0.000  -0.000   0.000  -0.000  -0.003   0.000   0.000  -0.000  -0.000  -0.000  -0.007   0.000   0.000   0.000
 -0.000  -0.000  -0.007  -0.000  -0.000  -0.000   0.000  -0.003   0.000   0.000  -0.005   0.003   0.000  -0.004   0.000  -0.000
  0.000  -0.000   0.000  -0.000  -0.000  -0.000   0.000   0.000  -0.003  -0.000  -0.000   0.000   0.000   0.000  -0.007  -0.000


------------------------ aborting loop because EDIFF is reached ----------------------------------------


    CHARGE:  cpu time    3.0179: real time    3.0181
    FORLOC:  cpu time    0.0868: real time    0.0869
    FORNL :  cpu time   12.7086: real time   12.7092
    FORCOR:  cpu time    3.8450: real time    3.8452
    FORHAR:  cpu time    0.1005: real time    0.1005
    MIXING:  cpu time    0.0184: real time    0.0184
    OFIELD:  cpu time    0.0001: real time    0.0001

 VOLUME and BASIS-vectors are now :
 -----------------------------------------------------------------------------
  energy-cutoff  :      396.00
  volume of cell :     1665.84
      direct lattice vectors                 reciprocal lattice vectors
     8.455582619  0.000000000  0.000000000     0.118265062 -0.068280376  0.000000000
     4.227791797  7.322749070  0.000000000     0.000000000  0.136560736  0.000000000
     0.000000000  0.000000000 26.903955460     0.000000000  0.000000000  0.037169256

  length of vectors
     8.455582619  8.455582619 26.903955460     0.136560736  0.136560736  0.037169256


 FORCES acting on ions
    electron-ion (+dipol)            ewald-force                    non-local-force                 convergence-correction
 -----------------------------------------------------------------------------------------------
   -.259E+00 -.158E+00 0.271E+04   0.312E+00 0.174E+00 -.271E+04   -.562E-02 0.115E-02 0.131E+00   -.204E-02 0.968E-03 0.125E-03
   0.593E+00 0.136E+00 0.271E+04   -.572E+00 -.193E+00 -.271E+04   -.247E-01 0.468E-01 0.199E+00   0.162E-02 -.866E-03 0.359E-03
   -.252E+00 -.205E+00 0.271E+04   0.257E+00 0.221E+00 -.271E+04   -.672E-02 -.136E-01 0.125E+00   0.422E-03 0.110E-03 0.165E-03
   0.436E+00 0.479E+00 0.271E+04   -.448E+00 -.433E+00 -.271E+04   0.131E-01 -.474E-01 0.208E+00   -.179E-02 0.149E-02 0.197E-03
   -.188E+00 -.652E-01 0.271E+04   0.211E+00 0.685E-01 -.271E+04   -.271E-01 -.117E-01 0.165E+00   0.187E-02 -.317E-03 0.166E-03
   -.195E+00 0.453E-01 0.271E+04   0.231E+00 -.505E-01 -.271E+04   0.149E-03 0.382E-02 0.135E+00   -.105E-03 0.276E-03 0.249E-03
   -.284E+00 -.183E+00 0.271E+04   0.306E+00 0.160E+00 -.271E+04   -.145E-01 0.677E-02 0.130E+00   -.153E-02 0.652E-03 -.666E-04
   -.925E-01 -.237E+00 0.271E+04   0.117E+00 0.259E+00 -.271E+04   -.185E-02 0.100E-02 0.136E+00   0.141E-02 -.168E-02 0.131E-03
   0.440E+00 0.201E+00 0.271E+04   -.425E+00 -.206E+00 -.271E+04   -.229E-02 0.329E-02 0.162E+00   0.113E-03 -.652E-03 0.254E-03
   0.599E+01 0.367E+01 0.108E+04   -.593E+01 -.365E+01 -.108E+04   -.996E-01 -.392E-01 -.392E-01   -.972E-03 -.567E-03 0.153E-01
   -.154E+01 -.103E+01 0.109E+04   0.149E+01 0.999E+00 -.109E+04   0.198E-01 0.158E-01 -.620E-01   0.530E-03 0.179E-03 0.129E-01
   -.283E+01 -.143E+01 0.109E+04   0.288E+01 0.149E+01 -.109E+04   -.606E-01 -.249E-02 0.192E-01   0.288E-03 0.131E-02 0.121E-01
   -.117E+01 -.764E+00 0.109E+04   0.113E+01 0.723E+00 -.109E+04   0.203E-02 0.407E-01 -.649E-01   0.942E-04 -.960E-03 0.123E-01
   -.107E+01 -.434E+00 0.109E+04   0.111E+01 0.448E+00 -.109E+04   -.390E-01 0.276E-02 0.199E-01   0.400E-03 -.123E-02 0.122E-01
   0.311E+01 0.267E+01 0.109E+04   -.307E+01 -.276E+01 -.109E+04   -.900E-01 0.110E-01 0.173E-01   -.396E-03 -.402E-03 0.110E-01
   -.276E+01 -.271E+01 0.109E+04   0.286E+01 0.273E+01 -.109E+04   -.556E-01 -.147E-01 0.128E-01   0.131E-02 0.109E-02 0.137E-01
   0.410E+01 0.711E+00 0.109E+04   -.415E+01 -.626E+00 -.109E+04   -.550E-01 -.584E-01 0.289E-01   0.396E-03 0.371E-03 0.130E-01
   0.910E-01 -.366E+00 0.109E+04   -.830E-01 0.365E+00 -.109E+04   -.196E-01 0.554E-02 -.754E-01   -.168E-02 0.136E-03 0.107E-01
   0.908E+01 0.539E+01 -.521E+03   -.918E+01 -.545E+01 0.521E+03   0.847E-01 0.492E-01 0.297E+00   0.139E-02 -.103E-02 0.248E-01
   -.301E+01 0.603E+01 -.539E+03   0.331E+01 -.582E+01 0.539E+03   -.318E+00 -.213E+00 -.698E-01   -.262E-02 -.513E-03 0.257E-01
   -.687E+01 0.457E+01 -.562E+03   0.657E+01 -.437E+01 0.562E+03   0.307E+00 -.196E+00 -.107E+00   0.247E-02 -.357E-02 0.214E-01
   0.371E+01 -.543E+01 -.535E+03   -.341E+01 0.558E+01 0.535E+03   -.325E+00 -.171E+00 -.387E-01   0.140E-03 -.129E-02 0.267E-01
   -.395E+01 -.242E+01 -.550E+03   0.375E+01 0.233E+01 0.550E+03   0.222E+00 0.105E+00 -.374E-01   0.507E-03 0.168E-02 0.253E-01
   0.890E+00 0.133E+01 -.531E+03   -.934E+00 -.141E+01 0.531E+03   0.547E-01 0.844E-01 0.168E+00   -.140E-02 0.323E-03 0.260E-01
   0.134E+00 -.808E+01 -.566E+03   -.114E+00 0.772E+01 0.566E+03   -.176E-01 0.363E+00 -.150E+00   -.222E-03 0.394E-02 0.222E-01
   0.184E+01 0.365E-01 -.531E+03   -.194E+01 -.250E-01 0.531E+03   0.101E+00 -.500E-02 0.186E+00   -.194E-02 -.120E-03 0.267E-01
   -.181E+01 -.105E+01 -.535E+03   0.189E+01 0.110E+01 0.535E+03   -.803E-01 -.516E-01 0.138E+00   0.186E-02 0.158E-02 0.280E-01
   -.128E+02 0.895E+01 -.219E+04   0.127E+02 -.905E+01 0.219E+04   0.557E-01 0.902E-01 -.275E+00   -.156E-02 -.428E-03 -.351E-02
   0.706E+02 0.414E+02 -.205E+04   -.711E+02 -.418E+02 0.205E+04   0.479E+00 0.396E+00 0.343E+00   0.284E-02 0.875E-03 -.363E-02
   -.878E+02 0.696E+02 -.207E+04   0.880E+02 -.698E+02 0.207E+04   -.164E+00 0.185E+00 -.200E+01   0.117E-03 -.288E-02 -.644E-02
   0.133E+02 -.119E+03 -.208E+04   -.136E+02 0.119E+03 0.208E+04   0.324E+00 -.640E-01 -.202E+01   -.118E-02 0.488E-02 -.374E-02
   -.543E+02 -.335E+02 -.215E+04   0.545E+02 0.337E+02 0.215E+04   -.230E+00 -.209E+00 -.788E-01   -.454E-02 0.510E-04 -.401E-02
   0.491E+02 -.193E+02 -.215E+04   -.492E+02 0.195E+02 0.215E+04   0.156E+00 -.136E+00 -.642E-01   0.542E-02 -.294E-02 -.541E-02
   -.151E+02 -.288E+01 -.218E+04   0.151E+02 0.291E+01 0.219E+04   -.579E-02 -.412E-01 -.369E+00   0.292E-02 -.217E-03 -.321E-02
   0.524E+01 -.111E+02 -.219E+04   -.535E+01 0.111E+02 0.219E+04   0.110E+00 -.894E-02 -.285E+00   -.119E-02 -.364E-02 -.307E-02
   0.806E+01 0.546E+02 -.215E+04   -.807E+01 -.547E+02 0.215E+04   0.185E-01 0.139E+00 -.549E-01   -.141E-02 0.561E-02 -.629E-02
   0.614E+02 -.815E+02 -.102E+04   -.612E+02 0.809E+02 0.102E+04   -.143E+00 0.608E+00 -.313E+00   -.773E-03 0.476E-03 -.307E-02
   0.128E+03 -.750E+02 -.102E+04   -.129E+03 0.752E+02 0.102E+04   0.967E+00 -.171E+00 -.315E-01   -.155E-02 -.205E-03 -.120E-02
   -.284E+02 -.118E+03 -.104E+04   0.279E+02 0.118E+03 0.104E+04   0.575E+00 -.206E+00 -.136E+01   -.238E-02 0.115E-02 -.195E-02
   -.124E+03 0.382E+01 -.104E+04   0.124E+03 -.415E+01 0.104E+04   -.200E+00 0.317E+00 -.156E+01   -.324E-03 -.133E-02 -.149E-02
   -.570E+02 0.120E+03 -.100E+04   0.565E+02 -.121E+03 0.100E+04   0.449E+00 0.739E+00 -.568E+00   -.160E-02 -.207E-02 -.184E-02
   -.506E+02 0.276E+02 -.100E+04   0.506E+02 -.275E+02 0.100E+04   0.323E-01 -.156E+00 -.249E+00   -.483E-03 -.129E-02 -.255E-02
   0.630E+02 -.807E+01 -.256E+03   -.678E+02 0.753E+01 0.258E+03   0.478E+01 0.555E+00 -.274E+01   -.394E-04 -.332E-04 -.635E-03
   -.238E+02 -.564E+02 -.262E+03   0.265E+02 0.604E+02 0.264E+03   -.273E+01 -.403E+01 -.264E+01   -.262E-03 -.116E-04 -.576E-03
   0.456E+02 -.562E+02 -.261E+03   -.487E+02 0.609E+02 0.261E+03   0.312E+01 -.467E+01 0.635E-01   0.924E-04 -.432E-03 -.445E-03
   0.570E+02 0.293E+02 -.240E+03   -.601E+02 -.330E+02 0.238E+03   0.311E+01 0.377E+01 0.251E+01   0.684E-04 0.244E-03 -.265E-03
   -.341E+02 -.641E+02 -.285E+03   0.367E+02 0.687E+02 0.287E+03   -.264E+01 -.461E+01 -.186E+01   -.137E-03 0.579E-03 -.538E-03
   -.726E+02 -.150E+02 -.283E+03   0.780E+02 0.163E+02 0.284E+03   -.535E+01 -.132E+01 -.141E+01   0.712E-03 0.537E-04 -.451E-03
   0.388E+02 0.470E+02 -.233E+03   -.429E+02 -.494E+02 0.230E+03   0.409E+01 0.246E+01 0.285E+01   0.346E-03 0.197E-03 -.226E-03
   -.512E+02 0.545E+02 -.260E+03   0.551E+02 -.584E+02 0.261E+03   -.394E+01 0.395E+01 -.488E+00   -.452E-03 0.141E-03 -.637E-03
   -.588E+02 -.418E+01 -.263E+03   0.631E+02 0.483E+01 0.266E+03   -.429E+01 -.653E+00 -.347E+01   -.295E-04 -.182E-03 -.331E-03
   0.615E+02 0.112E+03 -.926E+03   -.612E+02 -.111E+03 0.926E+03   -.265E+00 -.467E+00 0.105E+00   0.716E-03 -.143E-03 -.353E-02
   -.218E+02 0.626E+02 -.226E+03   0.247E+02 -.673E+02 0.226E+03   -.283E+01 0.476E+01 -.362E+00   0.637E-04 0.187E-04 -.642E-03
   0.285E+02 0.358E+01 -.246E+03   -.305E+02 -.248E+01 0.251E+03   0.206E+01 -.111E+01 -.505E+01   -.156E-03 0.103E-03 -.447E-03
   0.569E+02 0.276E+02 -.208E+03   -.611E+02 -.285E+02 0.204E+03   0.426E+01 0.899E+00 0.337E+01   0.137E-03 0.736E-04 -.654E-03
 -----------------------------------------------------------------------------------------------
   -.134E+01 -.929E+00 0.161E+02   0.142E-13 0.178E-12 0.315E-11   0.134E+01 0.927E+00 -.164E+02   -.451E-02 -.448E-03 0.281E+00
 
 
 POSITION                                       TOTAL-FORCE (eV/Angst)
 -----------------------------------------------------------------------------------
      0.00000      0.00000     10.00000         0.046008      0.018310     -0.165725
      2.81853      0.00000     10.00000        -0.001602     -0.011331     -0.260775
      5.63706      0.00000     10.00000        -0.000996      0.001815     -0.189284
      1.40926      2.44092     10.00000        -0.000172      0.000221     -0.263340
      4.22779      2.44092     10.00000        -0.002484     -0.008598     -0.163071
      7.04632      2.44092     10.00000         0.036289     -0.001081     -0.188970
      2.81853      4.88183     10.00000         0.006319     -0.015638     -0.194287
      5.63706      4.88183     10.00000         0.024092      0.021351     -0.193927
      8.45558      4.88183     10.00000         0.013308     -0.002551     -0.187131
      1.40926      0.81364     12.30132        -0.049594     -0.016624      0.073877
      4.22779      0.81364     12.30132        -0.028946     -0.010562      0.014424
      7.04632      0.81364     12.30132        -0.008613      0.057396      0.295931
      2.81853      3.25455     12.30132        -0.041358     -0.001085      0.005806
      5.63705      3.25455     12.30132         0.008467      0.015573      0.357660
      8.45558      3.25455     12.30132        -0.041873     -0.074966      0.169784
      4.22779      5.69547     12.30132         0.036777      0.005318      0.287683
      7.04632      5.69547     12.30132        -0.101326      0.026169      0.172995
      9.86485      5.69547     12.30132        -0.013276      0.004753      0.060743
      2.77493      1.61660     14.56788        -0.011868     -0.011250      0.025502
      5.62720      1.63948     14.61431        -0.021941     -0.011875      0.035515
      8.40079      1.63560     14.62995         0.010718     -0.005434      0.040010
      4.21470      4.07859     14.60772        -0.024060     -0.021825      0.027569
      7.00783      4.06472     14.62304         0.025744      0.011435      0.007370
      9.83457      4.06198     14.57864         0.008924     -0.003905      0.029623
      5.60189      6.48160     14.63457         0.002519      0.003892      0.041738
      8.42249      6.51271     14.57917         0.006951      0.006460      0.028163
     11.24759      6.51182     14.58852         0.001836     -0.001458      0.021011
      9.78895      2.42972     16.92181         0.002523     -0.002651      0.014686
      4.12266      2.41002     16.86173        -0.019813     -0.013918     -0.011366
      6.97233      2.46085     17.12188         0.002153      0.003241      0.004114
      5.56198      4.84192     17.11440        -0.004638     -0.017727     -0.005177
      8.40045      4.88763     16.89458         0.009501      0.006200     -0.009637
     11.19885      4.88012     16.89698        -0.015074      0.011942      0.015635
     12.61469      7.31821     16.93807        -0.017075     -0.012022      0.006650
      6.96845      7.30814     16.92451         0.000016     -0.002279      0.013731
      9.79789      7.31578     16.90268         0.000602     -0.015454      0.020815
      4.72723      3.54916     21.31267        -0.021293      0.014317      0.010399
      4.42432      4.00885     19.86775         0.028697      0.009444      0.008457
      5.75558      4.22499     19.15672         0.015993      0.008228      0.005996
      6.64935      3.01404     19.17720        -0.002969     -0.008675      0.014489
      6.09585      1.82239     19.95424         0.009196      0.016768      0.019404
      5.53272      2.21688     21.35779        -0.004738     -0.017838     -0.002472
      3.77324      3.43094     21.85431         0.021171      0.016376     -0.004469
      5.28141      4.35237     21.82731         0.024733     -0.007394      0.001066
      3.82088      4.93008     19.86534         0.016184      0.020117      0.000319
      3.81813      3.23424     19.36140         0.022120      0.015233     -0.007707
      6.27527      5.12138     19.53490         0.022940      0.024316      0.009781
      7.68018      3.27382     19.46185         0.023709     -0.004049      0.034601
      5.27290      1.34944     19.39108        -0.021433      0.010281     -0.021835
      6.87524      1.05086     20.06213        -0.015423     -0.004826     -0.000081
      6.38701      2.34847     22.04466         0.008940      0.000061     -0.017626
      4.66280      1.06007     21.87969         0.012819      0.017866      0.004225
      5.23401      0.12097     21.94663         0.013723     -0.012947     -0.017625
      4.25956      1.28981     22.87774         0.021356     -0.022926      0.010309
      3.81140      0.89013     21.19793        -0.013764     -0.006191      0.014421
 -----------------------------------------------------------------------------------
    total drift:                               -0.000553     -0.002299     -0.001512


--------------------------------------------------------------------------------------------------------



  FREE ENERGIE OF THE ION-ELECTRON SYSTEM (eV)
  ---------------------------------------------------
  free  energy   TOTEN  =      -253.48938514 eV

  energy  without entropy=     -253.44690937  energy(sigma->0) =     -253.47876620
 
 d Force = 0.6267915E-03[ 0.502E-03, 0.752E-03]  d Energy = 0.6257781E-03 0.101E-05
 d Force = 0.1261068E+02[ 0.126E+02, 0.126E+02]  d Ewald  = 0.1261067E+02 0.105E-05


--------------------------------------------------------------------------------------------------------


    POTLOK:  cpu time    3.8012: real time    3.8014


--------------------------------------------------------------------------------------------------------


 Conjugate gradient step on ions:
 trial-energy change:   -0.000626  1 .order   -0.000627   -0.000752   -0.000502
  (g-gl).g = 0.518E-03      g.g   = 0.436E-03  gl.gl    = 0.215E-02
 g(Force)  = 0.436E-03   g(Stress)= 0.000E+00 ortho     =-0.641E-04
 gamma     =   0.24153
 trial     =   1.78888
 opt step  =   5.38677  (harmonic =   5.38677) maximal distance =0.00341011
 next E    =  -253.489891   (d E  =  -0.00113)


--------------------------------------------------------------------------------------------------------


  
 reached required accuracy - stopping structural energy minimisation
 writing wavefunctions
     LOOP+:  cpu time  326.7443: real time  328.0118
    4ORBIT:  cpu time    0.0000: real time    0.0000

 total amount of memory used by VASP MPI-rank0   126970. kBytes
=======================================================================

   base      :      30000. kBytes
   nonlr-proj:      11441. kBytes
   fftplans  :      13445. kBytes
   grid      :       9308. kBytes
   one-center:        108. kBytes
   wavefun   :      62668. kBytes
 
  
  
 General timing and accounting informations for this job:
 ========================================================
  
                  Total CPU time used (sec):     3249.076
                            User time (sec):     3202.507
                          System time (sec):       46.569
                         Elapsed time (sec):     3256.290
  
                   Maximum memory used (kb):      370592.
                   Average memory used (kb):           0.
  
                          Minor page faults:        47442
                          Major page faults:           14
                 Voluntary context switches:         3640
