       N       E                     dE             d eps       ncg     rms          rms(c)
DAV:   1     0.604079099206E+04    0.60408E+04   -0.24074E+05  8232   0.116E+03
DAV:   2     0.381537061557E+03   -0.56593E+04   -0.51695E+04  8560   0.443E+02
DAV:   3    -0.323210806084E+03   -0.70475E+03   -0.65220E+03 10624   0.128E+02
DAV:   4    -0.381247667522E+03   -0.58037E+02   -0.51333E+02 11840   0.377E+01
DAV:   5    -0.383319395458E+03   -0.20717E+01   -0.19970E+01 11320   0.612E+00    0.337E+01
RMM:   6    -0.373038201846E+03    0.10281E+02   -0.19794E+01  9099   0.674E+00    0.263E+01
RMM:   7    -0.374695368175E+03   -0.16572E+01   -0.22451E+01  8848   0.691E+00    0.289E+01
RMM:   8    -0.399300069594E+03   -0.24605E+02   -0.26634E+01  9009   0.787E+00    0.359E+01
RMM:   9    -0.352829080854E+03    0.46471E+02   -0.15475E+01  8443   0.716E+00    0.129E+01
RMM:  10    -0.350810136373E+03    0.20189E+01   -0.43781E+00  8812   0.357E+00    0.644E+00
RMM:  11    -0.350988385919E+03   -0.17825E+00   -0.18831E+00  9155   0.217E+00    0.591E+00
RMM:  12    -0.350797949681E+03    0.19044E+00   -0.68800E-01  8805   0.132E+00    0.357E+00
RMM:  13    -0.350865983086E+03   -0.68033E-01   -0.36785E-01  8727   0.940E-01    0.281E+00
RMM:  14    -0.350852613918E+03    0.13369E-01   -0.12307E-01  9205   0.499E-01    0.187E+00
RMM:  15    -0.350847081173E+03    0.55327E-02   -0.60107E-02  8745   0.357E-01    0.165E+00
RMM:  16    -0.350815412833E+03    0.31668E-01   -0.46920E-02  8248   0.354E-01    0.878E-01
RMM:  17    -0.350810257234E+03    0.51556E-02   -0.20193E-02  8960   0.223E-01    0.626E-01
RMM:  18    -0.350812202522E+03   -0.19453E-02   -0.96416E-03  8741   0.144E-01    0.601E-01
RMM:  19    -0.350813528010E+03   -0.13255E-02   -0.56663E-03  8588   0.109E-01    0.485E-01
RMM:  20    -0.350812960744E+03    0.56727E-03   -0.53067E-03  8199   0.115E-01    0.245E-01
RMM:  21    -0.350813367599E+03   -0.40686E-03   -0.26090E-03  8600   0.809E-02    0.269E-01
RMM:  22    -0.350813239946E+03    0.12765E-03   -0.12496E-03  8375   0.497E-02    0.203E-01
RMM:  23    -0.350813460302E+03   -0.22036E-03   -0.16757E-03  8131   0.601E-02    0.120E-01
RMM:  24    -0.350813648268E+03   -0.18797E-03   -0.92462E-04  7176   0.429E-02    0.141E-01
RMM:  25    -0.350813458059E+03    0.19021E-03   -0.32429E-04  5372   0.290E-02    0.438E-02
RMM:  26    -0.350813605445E+03   -0.14739E-03   -0.24257E-04  5085   0.240E-02    0.614E-02
RMM:  27    -0.350813796451E+03   -0.19101E-03   -0.20878E-04  4969   0.239E-02    0.506E-02
RMM:  28    -0.350814008246E+03   -0.21180E-03   -0.16857E-04  4813   0.214E-02    0.237E-02
RMM:  29    -0.350814264696E+03   -0.25645E-03   -0.15000E-04  4772   0.192E-02    0.128E-02
RMM:  30    -0.350814538580E+03   -0.27388E-03   -0.16155E-04  4934   0.190E-02    0.103E-02
RMM:  31    -0.350814647999E+03   -0.10942E-03   -0.65974E-05  4504   0.136E-02    0.104E-02
RMM:  32    -0.350814761015E+03   -0.11302E-03   -0.57445E-05  4453   0.117E-02    0.121E-02
RMM:  33    -0.350814829531E+03   -0.68516E-04   -0.35319E-05  4107   0.971E-03
   1 F= -.35081483E+03 E0= -.35080008E+03  d E =-.590123E-01
       N       E                     dE             d eps       ncg     rms          rms(c)
DAV:   1    -0.350808726672E+03    0.60343E-02   -0.55175E-01  8400   0.956E-01    0.131E-01
RMM:   2    -0.350809461942E+03   -0.73527E-03   -0.87550E-03  7801   0.120E-01    0.121E-01
RMM:   3    -0.350809363721E+03    0.98221E-04   -0.52740E-04  5111   0.421E-02
   2 F= -.35080936E+03 E0= -.35079461E+03  d E =-.590303E-01
       N       E                     dE             d eps       ncg     rms          rms(c)
DAV:   1    -0.350806608058E+03    0.28539E-02   -0.22366E+00  8288   0.192E+00    0.260E-01
RMM:   2    -0.350808843734E+03   -0.22357E-02   -0.34486E-02  8189   0.243E-01    0.719E-02
RMM:   3    -0.350809007404E+03   -0.16367E-03   -0.20685E-03  6887   0.862E-02    0.267E-02
RMM:   4    -0.350809071951E+03   -0.64547E-04   -0.44448E-04  5181   0.287E-02
   3 F= -.35080907E+03 E0= -.35079432E+03  d E =-.589940E-01
       N       E                     dE             d eps       ncg     rms          rms(c)
DAV:   1    -0.350807592153E+03    0.14153E-02   -0.11143E+00  8288   0.136E+00    0.189E-01
RMM:   2    -0.350808996512E+03   -0.14044E-02   -0.17322E-02  8045   0.165E-01    0.142E-01
RMM:   3    -0.350808727858E+03    0.26865E-03   -0.97713E-04  5720   0.581E-02    0.103E-01
RMM:   4    -0.350808581958E+03    0.14590E-03   -0.13899E-03  6278   0.406E-02    0.438E-02
RMM:   5    -0.350808580048E+03    0.19103E-05   -0.95357E-05  4567   0.230E-02
   4 F= -.35080858E+03 E0= -.35079382E+03  d E =-.590375E-01
       N       E                     dE             d eps       ncg     rms          rms(c)
DAV:   1    -0.350808146620E+03    0.43534E-03   -0.22188E+00  8176   0.192E+00    0.281E-01
RMM:   2    -0.350809454919E+03   -0.13083E-02   -0.36603E-02  8185   0.257E-01    0.557E-02
RMM:   3    -0.350809626442E+03   -0.17152E-03   -0.23668E-03  7074   0.953E-02    0.189E-02
RMM:   4    -0.350809667851E+03   -0.41409E-04   -0.48565E-04  5290   0.291E-02
   5 F= -.35080967E+03 E0= -.35079492E+03  d E =-.589843E-01
       N       E                     dE             d eps       ncg     rms          rms(c)
DAV:   1    -0.350812674426E+03   -0.30480E-02   -0.10415E+00  8176   0.142E+00    0.184E-01
RMM:   2    -0.350813400645E+03   -0.72622E-03   -0.13668E-02  8075   0.159E-01    0.103E-01
RMM:   3    -0.350813374465E+03    0.26180E-04   -0.10894E-03  6036   0.593E-02    0.420E-02
RMM:   4    -0.350813383177E+03   -0.87114E-05   -0.27935E-04  4968   0.278E-02
   6 F= -.35081338E+03 E0= -.35079858E+03  d E =-.592005E-01
       N       E                     dE             d eps       ncg     rms          rms(c)
DAV:   1    -0.350811857620E+03    0.15168E-02   -0.19721E+00  8160   0.197E+00    0.264E-01
RMM:   2    -0.350813187227E+03   -0.13296E-02   -0.23158E-02  8183   0.229E-01    0.254E-02
RMM:   3    -0.350813303032E+03   -0.11580E-03   -0.14985E-03  6954   0.718E-02    0.207E-02
RMM:   4    -0.350813325904E+03   -0.22873E-04   -0.24602E-04  4894   0.236E-02
   7 F= -.35081333E+03 E0= -.35079862E+03  d E =-.588106E-01
       N       E                     dE             d eps       ncg     rms          rms(c)
DAV:   1    -0.350808587568E+03    0.47155E-02   -0.10216E+00  8160   0.140E+00    0.170E-01
RMM:   2    -0.350810055088E+03   -0.14675E-02   -0.18067E-02  8096   0.174E-01    0.106E-01
RMM:   3    -0.350810052335E+03    0.27534E-05   -0.11526E-03  5810   0.628E-02    0.912E-02
RMM:   4    -0.350809908655E+03    0.14368E-03   -0.12499E-03  6186   0.405E-02    0.331E-02
RMM:   5    -0.350809907394E+03    0.12611E-05   -0.88159E-05  4531   0.237E-02
   8 F= -.35080991E+03 E0= -.35079515E+03  d E =-.590112E-01
       N       E                     dE             d eps       ncg     rms          rms(c)
DAV:   1    -0.350808177833E+03    0.17308E-02   -0.21375E+00  8160   0.188E+00    0.248E-01
RMM:   2    -0.350809735596E+03   -0.15578E-02   -0.35109E-02  8166   0.247E-01    0.321E-02
RMM:   3    -0.350809996943E+03   -0.26135E-03   -0.21083E-03  6726   0.949E-02    0.160E-02
RMM:   4    -0.350810055204E+03   -0.58261E-04   -0.46741E-04  5206   0.273E-02
   9 F= -.35081006E+03 E0= -.35079530E+03  d E =-.590082E-01
       N       E                     dE             d eps       ncg     rms          rms(c)
DAV:   1    -0.350809713202E+03    0.28374E-03   -0.10642E+00  8176   0.138E+00    0.168E-01
RMM:   2    -0.350810828795E+03   -0.11156E-02   -0.18308E-02  8091   0.177E-01    0.109E-01
RMM:   3    -0.350810799422E+03    0.29372E-04   -0.12086E-03  5929   0.656E-02    0.865E-02
RMM:   4    -0.350810756142E+03    0.43280E-04   -0.10504E-03  5878   0.406E-02    0.333E-02
RMM:   5    -0.350810745216E+03    0.10926E-04   -0.86858E-05  4474   0.242E-02
  10 F= -.35081075E+03 E0= -.35079595E+03  d E =-.591753E-01
       N       E                     dE             d eps       ncg     rms          rms(c)
DAV:   1    -0.350807792084E+03    0.29641E-02   -0.21205E+00  8160   0.196E+00    0.237E-01
RMM:   2    -0.350810228971E+03   -0.24369E-02   -0.38660E-02  8166   0.262E-01    0.289E-02
RMM:   3    -0.350810481704E+03   -0.25273E-03   -0.24914E-03  6978   0.982E-02    0.186E-02
RMM:   4    -0.350810526089E+03   -0.44385E-04   -0.49262E-04  5305   0.285E-02
  11 F= -.35081053E+03 E0= -.35079581E+03  d E =-.588505E-01
       N       E                     dE             d eps       ncg     rms          rms(c)
DAV:   1    -0.350811567633E+03   -0.10859E-02   -0.10060E+00  8160   0.140E+00    0.181E-01
RMM:   2    -0.350812075113E+03   -0.50748E-03   -0.15770E-02  8152   0.184E-01    0.107E-01
RMM:   3    -0.350812172595E+03   -0.97482E-04   -0.12166E-03  6405   0.602E-02    0.679E-02
RMM:   4    -0.350812378702E+03   -0.20611E-03   -0.65081E-04  6027   0.365E-02    0.350E-02
RMM:   5    -0.350812370023E+03    0.86787E-05   -0.11706E-04  4703   0.191E-02
  12 F= -.35081237E+03 E0= -.35079758E+03  d E =-.591442E-01
       N       E                     dE             d eps       ncg     rms          rms(c)
DAV:   1    -0.350810602644E+03    0.17761E-02   -0.19949E+00  8160   0.195E+00    0.252E-01
RMM:   2    -0.350812543310E+03   -0.19407E-02   -0.34059E-02  8165   0.269E-01    0.374E-02
RMM:   3    -0.350812750646E+03   -0.20734E-03   -0.25536E-03  7601   0.901E-02    0.253E-02
RMM:   4    -0.350812776309E+03   -0.25663E-04   -0.36864E-04  5120   0.248E-02
  13 F= -.35081278E+03 E0= -.35079806E+03  d E =-.588703E-01
       N       E                     dE             d eps       ncg     rms          rms(c)
DAV:   1    -0.350807287651E+03    0.54630E-02   -0.10472E+00  8160   0.143E+00    0.176E-01
RMM:   2    -0.350808908256E+03   -0.16206E-02   -0.20796E-02  8162   0.191E-01    0.123E-01
RMM:   3    -0.350808921097E+03   -0.12841E-04   -0.12229E-03  6085   0.675E-02    0.111E-01
RMM:   4    -0.350808789933E+03    0.13116E-03   -0.13242E-03  6582   0.435E-02    0.533E-02
RMM:   5    -0.350808771132E+03    0.18801E-04   -0.14544E-04  4709   0.255E-02
  14 F= -.35080877E+03 E0= -.35079400E+03  d E =-.590769E-01
       N       E                     dE             d eps       ncg     rms          rms(c)
DAV:   1    -0.350807160129E+03    0.16298E-02   -0.22127E+00  8160   0.192E+00    0.263E-01
RMM:   2    -0.350809074214E+03   -0.19141E-02   -0.34525E-02  8190   0.237E-01    0.381E-02
RMM:   3    -0.350809286948E+03   -0.21273E-03   -0.20099E-03  6668   0.848E-02    0.248E-02
RMM:   4    -0.350809343755E+03   -0.56807E-04   -0.45132E-04  5160   0.298E-02
  15 F= -.35080934E+03 E0= -.35079461E+03  d E =-.589255E-01
       N       E                     dE             d eps       ncg     rms          rms(c)
DAV:   1    -0.350808832963E+03    0.45399E-03   -0.10995E+00  8160   0.137E+00    0.194E-01
RMM:   2    -0.350809866563E+03   -0.10336E-02   -0.19291E-02  8113   0.181E-01    0.122E-01
RMM:   3    -0.350809872232E+03   -0.56683E-05   -0.12046E-03  5991   0.671E-02    0.999E-02
RMM:   4    -0.350809829137E+03    0.43095E-04   -0.76149E-04  5708   0.391E-02
  16 F= -.35080983E+03 E0= -.35079508E+03  d E =-.589777E-01
       N       E                     dE             d eps       ncg     rms          rms(c)
DAV:   1    -0.350806192588E+03    0.36796E-02   -0.22223E+00  8160   0.193E+00    0.271E-01
RMM:   2    -0.350808267399E+03   -0.20748E-02   -0.41699E-02  8190   0.272E-01    0.841E-02
RMM:   3    -0.350808463150E+03   -0.19575E-03   -0.26526E-03  7394   0.976E-02    0.795E-02
RMM:   4    -0.350808475496E+03   -0.12347E-04   -0.50061E-04  5368   0.298E-02
  17 F= -.35080848E+03 E0= -.35079371E+03  d E =-.590619E-01
       N       E                     dE             d eps       ncg     rms          rms(c)
DAV:   1    -0.350812318266E+03   -0.38551E-02   -0.10532E+00  8160   0.135E+00    0.197E-01
RMM:   2    -0.350813423074E+03   -0.11048E-02   -0.17529E-02  8145   0.191E-01    0.110E-01
RMM:   3    -0.350813444913E+03   -0.21839E-04   -0.18107E-03  7109   0.649E-02    0.648E-02
RMM:   4    -0.350813484775E+03   -0.39862E-04   -0.39103E-04  5083   0.315E-02
  18 F= -.35081348E+03 E0= -.35079869E+03  d E =-.591962E-01
       N       E                     dE             d eps       ncg     rms          rms(c)
DAV:   1    -0.350811877718E+03    0.15672E-02   -0.19779E+00  8160   0.198E+00    0.267E-01
RMM:   2    -0.350813214546E+03   -0.13368E-02   -0.24847E-02  8190   0.241E-01    0.467E-02
RMM:   3    -0.350813313900E+03   -0.99353E-04   -0.16338E-03  7260   0.736E-02    0.339E-02
RMM:   4    -0.350813316237E+03   -0.23376E-05   -0.26121E-04  4914   0.253E-02
  19 F= -.35081332E+03 E0= -.35079861E+03  d E =-.588119E-01
       N       E                     dE             d eps       ncg     rms          rms(c)
DAV:   1    -0.350807832686E+03    0.54812E-02   -0.10416E+00  8160   0.141E+00    0.181E-01
RMM:   2    -0.350809213007E+03   -0.13803E-02   -0.17614E-02  8173   0.179E-01    0.120E-01
RMM:   3    -0.350809215133E+03   -0.21268E-05   -0.11408E-03  6084   0.631E-02    0.105E-01
RMM:   4    -0.350809138473E+03    0.76660E-04   -0.40349E-04  5081   0.312E-02
  20 F= -.35080914E+03 E0= -.35079438E+03  d E =-.590346E-01
       N       E                     dE             d eps       ncg     rms          rms(c)
DAV:   1    -0.350806948215E+03    0.22669E-02   -0.22194E+00  8160   0.192E+00    0.256E-01
RMM:   2    -0.350809090861E+03   -0.21426E-02   -0.34414E-02  8177   0.242E-01    0.527E-02
RMM:   3    -0.350809306346E+03   -0.21548E-03   -0.19955E-03  6761   0.846E-02    0.342E-02
RMM:   4    -0.350809341242E+03   -0.34896E-04   -0.41999E-04  5096   0.290E-02
  21 F= -.35080934E+03 E0= -.35079458E+03  d E =-.590311E-01
       N       E                     dE             d eps       ncg     rms          rms(c)
DAV:   1    -0.350807853791E+03    0.14526E-02   -0.11013E+00  8160   0.135E+00    0.190E-01
RMM:   2    -0.350809290478E+03   -0.14367E-02   -0.20687E-02  8105   0.189E-01    0.142E-01
RMM:   3    -0.350809132944E+03    0.15753E-03   -0.13057E-03  6131   0.719E-02    0.114E-01
RMM:   4    -0.350808980642E+03    0.15230E-03   -0.10691E-03  5957   0.409E-02    0.885E-02
RMM:   5    -0.350808887444E+03    0.93198E-04   -0.18494E-04  4695   0.285E-02
  22 F= -.35080889E+03 E0= -.35079412E+03  d E =-.590807E-01
       N       E                     dE             d eps       ncg     rms          rms(c)
DAV:   1    -0.350807966740E+03    0.10139E-02   -0.22206E+00  8160   0.192E+00    0.287E-01
RMM:   2    -0.350809063804E+03   -0.10971E-02   -0.37616E-02  8184   0.264E-01    0.552E-02
RMM:   3    -0.350809399336E+03   -0.33553E-03   -0.23982E-03  7280   0.962E-02    0.401E-02
RMM:   4    -0.350809443179E+03   -0.43843E-04   -0.52221E-04  5389   0.296E-02
  23 F= -.35080944E+03 E0= -.35079470E+03  d E =-.589675E-01
       N       E                     dE             d eps       ncg     rms          rms(c)
DAV:   1    -0.350812510852E+03   -0.31115E-02   -0.10424E+00  8160   0.142E+00    0.185E-01
RMM:   2    -0.350813266976E+03   -0.75612E-03   -0.13850E-02  8081   0.161E-01    0.104E-01
RMM:   3    -0.350813217015E+03    0.49961E-04   -0.11279E-03  6163   0.600E-02    0.465E-02
RMM:   4    -0.350813253977E+03   -0.36962E-04   -0.30773E-04  5037   0.295E-02
  24 F= -.35081325E+03 E0= -.35079845E+03  d E =-.592278E-01
       N       E                     dE             d eps       ncg     rms          rms(c)
DAV:   1    -0.350811914829E+03    0.13022E-02   -0.19747E+00  8160   0.198E+00    0.263E-01
RMM:   2    -0.350813319158E+03   -0.14043E-02   -0.23681E-02  8181   0.237E-01    0.427E-02
RMM:   3    -0.350813430934E+03   -0.11178E-03   -0.16181E-03  7279   0.708E-02    0.273E-02
RMM:   4    -0.350813454562E+03   -0.23628E-04   -0.25136E-04  4912   0.243E-02
  25 F= -.35081345E+03 E0= -.35079876E+03  d E =-.587956E-01
       N       E                     dE             d eps       ncg     rms          rms(c)
DAV:   1    -0.350808644794E+03    0.47861E-02   -0.10296E+00  8160   0.141E+00    0.174E-01
RMM:   2    -0.350810240046E+03   -0.15953E-02   -0.19967E-02  8153   0.186E-01    0.114E-01
RMM:   3    -0.350810245826E+03   -0.57803E-05   -0.11995E-03  6067   0.669E-02    0.101E-01
RMM:   4    -0.350810088446E+03    0.15738E-03   -0.11951E-03  6586   0.424E-02    0.488E-02
RMM:   5    -0.350810046454E+03    0.41992E-04   -0.13015E-04  4666   0.225E-02
  26 F= -.35081005E+03 E0= -.35079530E+03  d E =-.589951E-01
       N       E                     dE             d eps       ncg     rms          rms(c)
DAV:   1    -0.350808391704E+03    0.16967E-02   -0.21678E+00  8160   0.188E+00    0.259E-01
RMM:   2    -0.350809099192E+03   -0.70749E-03   -0.36830E-02  8189   0.255E-01    0.526E-02
RMM:   3    -0.350809556180E+03   -0.45699E-03   -0.20319E-03  7009   0.906E-02    0.334E-02
RMM:   4    -0.350809751537E+03   -0.19536E-03   -0.42236E-04  5215   0.283E-02    0.232E-02
RMM:   5    -0.350809855203E+03   -0.10367E-03   -0.97513E-05  4621   0.170E-02    0.157E-02
RMM:   6    -0.350809893919E+03   -0.38717E-04   -0.45111E-05  4542   0.129E-02
  27 F= -.35080989E+03 E0= -.35079514E+03  d E =-.590201E-01
       N       E                     dE             d eps       ncg     rms          rms(c)
DAV:   1    -0.350809076738E+03    0.77846E-03   -0.10842E+00  8184   0.135E+00    0.186E-01
RMM:   2    -0.350809718957E+03   -0.64222E-03   -0.17649E-02  8141   0.181E-01    0.124E-01
RMM:   3    -0.350809236345E+03    0.48261E-03   -0.14560E-03  6929   0.673E-02    0.918E-02
RMM:   4    -0.350809680782E+03   -0.44444E-03   -0.11285E-03  6785   0.427E-02    0.506E-02
RMM:   5    -0.350809746352E+03   -0.65570E-04   -0.12979E-04  4742   0.208E-02
  28 F= -.35080975E+03 E0= -.35079503E+03  d E =-.588636E-01
       N       E                     dE             d eps       ncg     rms          rms(c)
DAV:   1    -0.350808276157E+03    0.14046E-02   -0.21716E+00  8160   0.189E+00    0.264E-01
RMM:   2    -0.350809740314E+03   -0.14642E-02   -0.33424E-02  8163   0.250E-01    0.517E-02
RMM:   3    -0.350809890186E+03   -0.14987E-03   -0.19464E-03  7043   0.833E-02    0.304E-02
RMM:   4    -0.350809923022E+03   -0.32835E-04   -0.39144E-04  5102   0.271E-02
  29 F= -.35080992E+03 E0= -.35079513E+03  d E =-.591578E-01
       N       E                     dE             d eps       ncg     rms          rms(c)
DAV:   1    -0.350811886421E+03   -0.19962E-02   -0.10811E+00  8160   0.133E+00    0.189E-01
RMM:   2    -0.350812803341E+03   -0.91692E-03   -0.15187E-02  7997   0.162E-01    0.109E-01
RMM:   3    -0.350812664750E+03    0.13859E-03   -0.14114E-03  6458   0.558E-02    0.529E-02
RMM:   4    -0.350812608421E+03    0.56329E-04   -0.30114E-04  4892   0.282E-02
  30 F= -.35081261E+03 E0= -.35079780E+03  d E =-.592324E-01
       N       E                     dE             d eps       ncg     rms          rms(c)
DAV:   1    -0.350810846706E+03    0.18180E-02   -0.20349E+00  8160   0.197E+00    0.257E-01
RMM:   2    -0.350812177097E+03   -0.13304E-02   -0.27727E-02  8158   0.259E-01    0.299E-02
RMM:   3    -0.350812345474E+03   -0.16838E-03   -0.18466E-03  7444   0.778E-02    0.188E-02
RMM:   4    -0.350812364178E+03   -0.18703E-04   -0.25609E-04  4945   0.239E-02
  31 F= -.35081236E+03 E0= -.35079767E+03  d E =-.587813E-01
       N       E                     dE             d eps       ncg     rms          rms(c)
DAV:   1    -0.350807884057E+03    0.44614E-02   -0.10556E+00  8160   0.143E+00    0.180E-01
RMM:   2    -0.350809163936E+03   -0.12799E-02   -0.17696E-02  8101   0.179E-01    0.115E-01
RMM:   3    -0.350809139720E+03    0.24215E-04   -0.10651E-03  5951   0.585E-02    0.887E-02
RMM:   4    -0.350808949011E+03    0.19071E-03   -0.80479E-04  6011   0.387E-02    0.392E-02
RMM:   5    -0.350808976881E+03   -0.27870E-04   -0.10171E-04  4628   0.213E-02
  32 F= -.35080898E+03 E0= -.35079425E+03  d E =-.589235E-01
       N       E                     dE             d eps       ncg     rms          rms(c)
DAV:   1    -0.350806891187E+03    0.20578E-02   -0.22133E+00  8160   0.192E+00    0.262E-01
RMM:   2    -0.350808821130E+03   -0.19299E-02   -0.33582E-02  8179   0.234E-01    0.428E-02
RMM:   3    -0.350808992976E+03   -0.17185E-03   -0.19392E-03  6607   0.825E-02    0.247E-02
RMM:   4    -0.350809027104E+03   -0.34128E-04   -0.41828E-04  5094   0.277E-02
  33 F= -.35080903E+03 E0= -.35079425E+03  d E =-.591046E-01
       N       E                     dE             d eps       ncg     rms          rms(c)
DAV:   1    -0.350808368740E+03    0.62424E-03   -0.11109E+00  8160   0.136E+00    0.191E-01
RMM:   2    -0.350809529387E+03   -0.11606E-02   -0.17950E-02  8111   0.165E-01    0.124E-01
RMM:   3    -0.350809591251E+03   -0.61865E-04   -0.11217E-03  5848   0.609E-02    0.111E-01
RMM:   4    -0.350809547837E+03    0.43415E-04   -0.99284E-04  6533   0.431E-02
  34 F= -.35080955E+03 E0= -.35079480E+03  d E =-.589792E-01
       N       E                     dE             d eps       ncg     rms          rms(c)
DAV:   1    -0.350807088088E+03    0.25032E-02   -0.22305E+00  8160   0.193E+00    0.274E-01
RMM:   2    -0.350807910091E+03   -0.82200E-03   -0.41994E-02  8195   0.269E-01    0.547E-02
RMM:   3    -0.350808211181E+03   -0.30109E-03   -0.25638E-03  7309   0.930E-02    0.422E-02
RMM:   4    -0.350808363980E+03   -0.15280E-03   -0.51683E-04  5377   0.313E-02    0.310E-02
RMM:   5    -0.350808568769E+03   -0.20479E-03   -0.12921E-04  4720   0.201E-02    0.213E-02
RMM:   6    -0.350808741019E+03   -0.17225E-03   -0.10055E-04  4672   0.164E-02    0.127E-02
RMM:   7    -0.350808796859E+03   -0.55841E-04   -0.41022E-05  4535   0.121E-02
  35 F= -.35080880E+03 E0= -.35079403E+03  d E =-.590482E-01
       N       E                     dE             d eps       ncg     rms          rms(c)
DAV:   1    -0.350812465691E+03   -0.37247E-02   -0.10532E+00  8160   0.135E+00    0.206E-01
RMM:   2    -0.350813205666E+03   -0.73998E-03   -0.16907E-02  8149   0.187E-01    0.107E-01
RMM:   3    -0.350813234985E+03   -0.29318E-04   -0.16151E-03  6854   0.638E-02    0.617E-02
RMM:   4    -0.350813261407E+03   -0.26422E-04   -0.40399E-04  5206   0.328E-02
  36 F= -.35081326E+03 E0= -.35079847E+03  d E =-.591745E-01
       N       E                     dE             d eps       ncg     rms          rms(c)
DAV:   1    -0.350812033036E+03    0.12019E-02   -0.19747E+00  8160   0.198E+00    0.267E-01
RMM:   2    -0.350813425573E+03   -0.13925E-02   -0.23825E-02  8175   0.236E-01    0.357E-02
RMM:   3    -0.350813519221E+03   -0.93648E-04   -0.16064E-03  7191   0.721E-02    0.216E-02
RMM:   4    -0.350813541135E+03   -0.21913E-04   -0.24879E-04  4903   0.246E-02
  37 F= -.35081354E+03 E0= -.35079883E+03  d E =-.588270E-01
       N       E                     dE             d eps       ncg     rms          rms(c)
DAV:   1    -0.350812109530E+03    0.14097E-02   -0.57888E-01  8160   0.105E+00    0.179E-01
RMM:   2    -0.350812592766E+03   -0.48324E-03   -0.91722E-03  8052   0.131E-01    0.881E-02
RMM:   3    -0.350812463587E+03    0.12918E-03   -0.85722E-04  5708   0.482E-02    0.559E-02
RMM:   4    -0.350812459089E+03    0.44987E-05   -0.26598E-04  4870   0.287E-02
  38 F= -.35081246E+03 E0= -.35079771E+03  d E =-.589809E-01
       N       E                     dE             d eps       ncg     rms          rms(c)
DAV:   1    -0.350812891859E+03   -0.42827E-03   -0.34478E-01  8392   0.604E-01    0.246E-01
RMM:   2    -0.350812245902E+03    0.64596E-03   -0.80534E-03  7824   0.102E-01    0.294E-02
RMM:   3    -0.350812272588E+03   -0.26686E-04   -0.36256E-04  4900   0.332E-02
  39 F= -.35081227E+03 E0= -.35079752E+03  d E =-.590093E-01
       N       E                     dE             d eps       ncg     rms          rms(c)
DAV:   1    -0.350814415734E+03   -0.21698E-02   -0.17527E-01  8432   0.437E-01    0.190E-01
RMM:   2    -0.350813912941E+03    0.50279E-03   -0.43633E-03  7174   0.754E-02    0.669E-02
RMM:   3    -0.350813951584E+03   -0.38643E-04   -0.52415E-04  5372   0.337E-02
  40 F= -.35081395E+03 E0= -.35079920E+03  d E =-.590099E-01
       N       E                     dE             d eps       ncg     rms          rms(c)
DAV:   1    -0.350813721107E+03    0.19183E-03   -0.33270E-01  8296   0.582E-01    0.194E-01
RMM:   2    -0.350813268432E+03    0.45268E-03   -0.48474E-03  7810   0.828E-02    0.308E-02
RMM:   3    -0.350813528768E+03   -0.26034E-03   -0.27515E-04  4933   0.279E-02    0.162E-02
RMM:   4    -0.350813576326E+03   -0.47558E-04   -0.79259E-05  4608   0.155E-02
  41 F= -.35081358E+03 E0= -.35079883E+03  d E =-.590049E-01
       N       E                     dE             d eps       ncg     rms          rms(c)
DAV:   1    -0.350814541178E+03   -0.10124E-02   -0.15778E-01  8416   0.414E-01    0.118E-01
RMM:   2    -0.350814499971E+03    0.41207E-04   -0.15183E-03  6519   0.519E-02    0.676E-02
RMM:   3    -0.350814489220E+03    0.10751E-04   -0.22584E-04  4801   0.252E-02
  42 F= -.35081449E+03 E0= -.35079973E+03  d E =-.590447E-01
       N       E                     dE             d eps       ncg     rms          rms(c)
DAV:   1    -0.350814017753E+03    0.48222E-03   -0.31267E-01  8232   0.589E-01    0.185E-01
RMM:   2    -0.350814189157E+03   -0.17140E-03   -0.39198E-03  7551   0.817E-02    0.275E-02
RMM:   3    -0.350814205044E+03   -0.15887E-04   -0.19064E-04  4769   0.259E-02
  43 F= -.35081421E+03 E0= -.35079946E+03  d E =-.589789E-01
       N       E                     dE             d eps       ncg     rms          rms(c)
DAV:   1    -0.350812702384E+03    0.14868E-02   -0.16518E-01  8312   0.434E-01    0.157E-01
RMM:   2    -0.350812716929E+03   -0.14545E-04   -0.32137E-03  7245   0.721E-02    0.906E-02
RMM:   3    -0.350812618092E+03    0.98837E-04   -0.50226E-04  5057   0.329E-02
  44 F= -.35081262E+03 E0= -.35079788E+03  d E =-.589650E-01
       N       E                     dE             d eps       ncg     rms          rms(c)
DAV:   1    -0.350812763699E+03   -0.46770E-04   -0.34740E-01  8184   0.588E-01    0.247E-01
RMM:   2    -0.350812015328E+03    0.74837E-03   -0.79649E-03  7862   0.106E-01    0.334E-02
RMM:   3    -0.350812049620E+03   -0.34291E-04   -0.31583E-04  4847   0.316E-02
  45 F= -.35081205E+03 E0= -.35079729E+03  d E =-.590282E-01
       N       E                     dE             d eps       ncg     rms          rms(c)
DAV:   1    -0.350813475350E+03   -0.14600E-02   -0.16258E-01  8424   0.399E-01    0.120E-01
RMM:   2    -0.350813390932E+03    0.84418E-04   -0.14537E-03  6093   0.478E-02    0.592E-02
RMM:   3    -0.350813537334E+03   -0.14640E-03   -0.19078E-04  4772   0.242E-02    0.348E-02
RMM:   4    -0.350813572252E+03   -0.34917E-04   -0.72172E-05  4621   0.159E-02
  46 F= -.35081357E+03 E0= -.35079882E+03  d E =-.590106E-01
       N       E                     dE             d eps       ncg     rms          rms(c)
DAV:   1    -0.350814099740E+03   -0.56241E-03   -0.33257E-01  8232   0.572E-01    0.195E-01
RMM:   2    -0.350814016050E+03    0.83690E-04   -0.38324E-03  6938   0.698E-02    0.167E-02
RMM:   3    -0.350814036919E+03   -0.20869E-04   -0.17171E-04  4654   0.245E-02
  47 F= -.35081404E+03 E0= -.35079929E+03  d E =-.590044E-01
       N       E                     dE             d eps       ncg     rms          rms(c)
DAV:   1    -0.350814622747E+03   -0.60670E-03   -0.16294E-01  8424   0.402E-01    0.151E-01
RMM:   2    -0.350814453867E+03    0.16888E-03   -0.23482E-03  6487   0.556E-02    0.674E-02
RMM:   3    -0.350814496181E+03   -0.42315E-04   -0.32076E-04  4921   0.276E-02
  48 F= -.35081450E+03 E0= -.35079975E+03  d E =-.589976E-01
       N       E                     dE             d eps       ncg     rms          rms(c)
DAV:   1    -0.350814263790E+03    0.19008E-03   -0.31161E-01  8376   0.570E-01    0.188E-01
RMM:   2    -0.350814330447E+03   -0.66657E-04   -0.38237E-03  7103   0.755E-02    0.270E-02
RMM:   3    -0.350814349462E+03   -0.19016E-04   -0.19416E-04  4744   0.280E-02
  49 F= -.35081435E+03 E0= -.35079960E+03  d E =-.590063E-01
       N       E                     dE             d eps       ncg     rms          rms(c)
DAV:   1    -0.350812321001E+03    0.20094E-02   -0.16284E-01  8400   0.432E-01    0.153E-01
RMM:   2    -0.350812172434E+03    0.14857E-03   -0.32145E-03  7329   0.701E-02    0.898E-02
RMM:   3    -0.350811970880E+03    0.20155E-03   -0.44824E-04  5050   0.282E-02    0.535E-02
RMM:   4    -0.350812219420E+03   -0.24854E-03   -0.36082E-04  5249   0.280E-02    0.426E-02
RMM:   5    -0.350812197195E+03    0.22224E-04   -0.62817E-05  4486   0.177E-02
  50 F= -.35081220E+03 E0= -.35079745E+03  d E =-.590034E-01
       N       E                     dE             d eps       ncg     rms          rms(c)
DAV:   1    -0.350813143086E+03   -0.92367E-03   -0.34699E-01  8352   0.614E-01    0.250E-01
RMM:   2    -0.350812448033E+03    0.69505E-03   -0.77821E-03  7731   0.974E-02    0.286E-02
RMM:   3    -0.350812474189E+03   -0.26156E-04   -0.34465E-04  4877   0.332E-02
  51 F= -.35081247E+03 E0= -.35079772E+03  d E =-.590055E-01
       N       E                     dE             d eps       ncg     rms          rms(c)
DAV:   1    -0.350813896076E+03   -0.14480E-02   -0.16534E-01  8328   0.411E-01    0.127E-01
RMM:   2    -0.350813894734E+03    0.13413E-05   -0.13948E-03  5798   0.472E-02    0.637E-02
RMM:   3    -0.350813891262E+03    0.34722E-05   -0.14227E-04  4642   0.239E-02
  52 F= -.35081389E+03 E0= -.35079914E+03  d E =-.590059E-01
       N       E                     dE             d eps       ncg     rms          rms(c)
DAV:   1    -0.350813781191E+03    0.11354E-03   -0.33228E-01  8200   0.583E-01    0.194E-01
RMM:   2    -0.350813679413E+03    0.10178E-03   -0.42049E-03  7295   0.759E-02    0.416E-02
RMM:   3    -0.350813679813E+03   -0.39994E-06   -0.20293E-04  4708   0.273E-02
  53 F= -.35081368E+03 E0= -.35079893E+03  d E =-.590088E-01
       N       E                     dE             d eps       ncg     rms          rms(c)
DAV:   1    -0.350814401106E+03   -0.72169E-03   -0.15756E-01  8168   0.415E-01    0.117E-01
RMM:   2    -0.350814518431E+03   -0.11733E-03   -0.13745E-03  6037   0.500E-02    0.653E-02
RMM:   3    -0.350814502050E+03    0.16381E-04   -0.16577E-04  4722   0.234E-02
  54 F= -.35081450E+03 E0= -.35079975E+03  d E =-.590214E-01
       N       E                     dE             d eps       ncg     rms          rms(c)
DAV:   1    -0.350814182758E+03    0.33567E-03   -0.31279E-01  8408   0.590E-01    0.186E-01
RMM:   2    -0.350814307715E+03   -0.12496E-03   -0.37601E-03  7304   0.778E-02    0.308E-02
RMM:   3    -0.350814316209E+03   -0.84942E-05   -0.18697E-04  4757   0.264E-02
  55 F= -.35081432E+03 E0= -.35079957E+03  d E =-.589757E-01
       N       E                     dE             d eps       ncg     rms          rms(c)
DAV:   1    -0.350814380024E+03   -0.72309E-04   -0.15857E-01  8224   0.442E-01    0.123E-01
RMM:   2    -0.350814460173E+03   -0.80149E-04   -0.17032E-03  6138   0.519E-02    0.561E-02
RMM:   3    -0.350814461768E+03   -0.15953E-05   -0.17069E-04  4740   0.239E-02
  56 F= -.35081446E+03 E0= -.35079971E+03  d E =-.589885E-01
       N       E                     dE             d eps       ncg     rms          rms(c)
DAV:   1    -0.350814225591E+03    0.23458E-03   -0.32263E-01  8168   0.565E-01    0.158E-01
RMM:   2    -0.350814460211E+03   -0.23462E-03   -0.25582E-03  6831   0.613E-02    0.322E-02
RMM:   3    -0.350814468986E+03   -0.87751E-05   -0.14221E-04  4660   0.226E-02
  57 F= -.35081447E+03 E0= -.35079971E+03  d E =-.590203E-01
       N       E                     dE             d eps       ncg     rms          rms(c)
DAV:   1    -0.350812963746E+03    0.14965E-02   -0.16437E-01  8168   0.408E-01    0.147E-01
RMM:   2    -0.350812766881E+03    0.19686E-03   -0.21926E-03  6812   0.593E-02    0.865E-02
RMM:   3    -0.350812719396E+03    0.47485E-04   -0.50258E-04  5150   0.264E-02
  58 F= -.35081272E+03 E0= -.35079796E+03  d E =-.590200E-01
       N       E                     dE             d eps       ncg     rms          rms(c)
DAV:   1    -0.350813111231E+03   -0.34435E-03   -0.34531E-01  8160   0.600E-01    0.254E-01
RMM:   2    -0.350812271596E+03    0.83964E-03   -0.92289E-03  7759   0.105E-01    0.384E-02
RMM:   3    -0.350812341923E+03   -0.70327E-04   -0.43651E-04  5176   0.380E-02
  59 F= -.35081234E+03 E0= -.35079759E+03  d E =-.590039E-01
       N       E                     dE             d eps       ncg     rms          rms(c)
DAV:   1    -0.350813780350E+03   -0.15088E-02   -0.17601E-01  8208   0.422E-01    0.197E-01
RMM:   2    -0.350813214255E+03    0.56610E-03   -0.55918E-03  7413   0.845E-02    0.715E-02
RMM:   3    -0.350813028296E+03    0.18596E-03   -0.52885E-04  5486   0.343E-02    0.462E-02
RMM:   4    -0.350813182166E+03   -0.15387E-03   -0.17491E-04  4748   0.237E-02    0.198E-02
RMM:   5    -0.350813225427E+03   -0.43261E-04   -0.50427E-05  4546   0.137E-02
  60 F= -.35081323E+03 E0= -.35079847E+03  d E =-.590021E-01
       N       E                     dE             d eps       ncg     rms          rms(c)
DAV:   1    -0.350814224825E+03   -0.10427E-02   -0.32648E-01  8248   0.580E-01    0.210E-01
RMM:   2    -0.350814095486E+03    0.12934E-03   -0.49539E-03  7100   0.818E-02    0.227E-02
RMM:   3    -0.350814113614E+03   -0.18128E-04   -0.28732E-04  4909   0.292E-02
  61 F= -.35081411E+03 E0= -.35079936E+03  d E =-.589998E-01
       N       E                     dE             d eps       ncg     rms          rms(c)
DAV:   1    -0.350812697551E+03    0.13979E-02   -0.16690E-01  8336   0.451E-01    0.160E-01
RMM:   2    -0.350812496891E+03    0.20066E-03   -0.33602E-03  7333   0.730E-02    0.905E-02
RMM:   3    -0.350812120945E+03    0.37595E-03   -0.61361E-04  5635   0.318E-02    0.505E-02
RMM:   4    -0.350812244428E+03   -0.12348E-03   -0.13498E-04  4681   0.216E-02    0.241E-02
RMM:   5    -0.350812374611E+03   -0.13018E-03   -0.61171E-05  4561   0.148E-02    0.163E-02
RMM:   6    -0.350812475191E+03   -0.10058E-03   -0.66606E-05  4608   0.129E-02    0.931E-03
RMM:   7    -0.350812497285E+03   -0.22093E-04   -0.20797E-05  4458   0.958E-03
  62 F= -.35081250E+03 E0= -.35079774E+03  d E =-.590135E-01
       N       E                     dE             d eps       ncg     rms          rms(c)
DAV:   1    -0.350812870562E+03   -0.39537E-03   -0.34874E-01  8384   0.592E-01    0.252E-01
RMM:   2    -0.350812148607E+03    0.72195E-03   -0.76612E-03  7713   0.940E-02    0.166E-02
RMM:   3    -0.350812178827E+03   -0.30220E-04   -0.30898E-04  4835   0.320E-02
  63 F= -.35081218E+03 E0= -.35079743E+03  d E =-.589934E-01
       N       E                     dE             d eps       ncg     rms          rms(c)
DAV:   1    -0.350814336271E+03   -0.21877E-02   -0.17600E-01  8408   0.419E-01    0.195E-01
RMM:   2    -0.350813761814E+03    0.57446E-03   -0.41492E-03  6982   0.718E-02    0.639E-02
RMM:   3    -0.350813791443E+03   -0.29629E-04   -0.32071E-04  4846   0.287E-02
  64 F= -.35081379E+03 E0= -.35079903E+03  d E =-.590307E-01
       N       E                     dE             d eps       ncg     rms          rms(c)
DAV:   1    -0.350813880246E+03   -0.11843E-03   -0.33466E-01  8176   0.572E-01    0.197E-01
RMM:   2    -0.350813702104E+03    0.17814E-03   -0.46292E-03  7519   0.786E-02    0.298E-02
RMM:   3    -0.350813735930E+03   -0.33825E-04   -0.19834E-04  4703   0.266E-02
  65 F= -.35081374E+03 E0= -.35079899E+03  d E =-.589908E-01
       N       E                     dE             d eps       ncg     rms          rms(c)
DAV:   1    -0.350814799371E+03   -0.10973E-02   -0.16317E-01  8464   0.401E-01    0.154E-01
RMM:   2    -0.350814636671E+03    0.16270E-03   -0.24187E-03  6363   0.566E-02    0.624E-02
RMM:   3    -0.350814622616E+03    0.14055E-04   -0.20058E-04  4696   0.251E-02
  66 F= -.35081462E+03 E0= -.35079987E+03  d E =-.590108E-01
       N       E                     dE             d eps       ncg     rms          rms(c)
DAV:   1    -0.350814120224E+03    0.51645E-03   -0.31137E-01  8424   0.567E-01    0.189E-01
RMM:   2    -0.350814187256E+03   -0.67031E-04   -0.37046E-03  7095   0.753E-02    0.214E-02
RMM:   3    -0.350814203577E+03   -0.16321E-04   -0.17978E-04  4708   0.268E-02
  67 F= -.35081420E+03 E0= -.35079945E+03  d E =-.590006E-01
       N       E                     dE             d eps       ncg     rms          rms(c)
DAV:   1    -0.350808595825E+03    0.55914E-02   -0.63952E-01  8168   0.943E-01    0.160E-01
RMM:   2    -0.350809253515E+03   -0.65769E-03   -0.84386E-03  7189   0.106E-01    0.126E-01
RMM:   3    -0.350809158729E+03    0.94786E-04   -0.27261E-04  4899   0.283E-02
  68 F= -.35080916E+03 E0= -.35079440E+03  d E =-.590202E-01
       N       E                     dE             d eps       ncg     rms          rms(c)
DAV:   1    -0.350808479203E+03    0.77431E-03   -0.23058E+00  8160   0.176E+00    0.269E-01
RMM:   2    -0.350809290226E+03   -0.81102E-03   -0.24747E-02  7898   0.184E-01    0.361E-02
RMM:   3    -0.350809283314E+03    0.69129E-05   -0.79416E-04  5447   0.476E-02
  69 F= -.35080928E+03 E0= -.35079453E+03  d E =-.589982E-01
       N       E                     dE             d eps       ncg     rms          rms(c)
DAV:   1    -0.350809600400E+03   -0.31017E-03   -0.11144E+00  8160   0.127E+00    0.188E-01
RMM:   2    -0.350810158470E+03   -0.55807E-03   -0.13098E-02  7749   0.135E-01    0.122E-01
RMM:   3    -0.350809868122E+03    0.29035E-03   -0.83858E-04  5615   0.402E-02    0.651E-02
RMM:   4    -0.350809997924E+03   -0.12980E-03   -0.48691E-04  5434   0.334E-02    0.279E-02
RMM:   5    -0.350809996781E+03    0.11423E-05   -0.63654E-05  4476   0.183E-02
  70 F= -.35081000E+03 E0= -.35079525E+03  d E =-.589732E-01
       N       E                     dE             d eps       ncg     rms          rms(c)
DAV:   1    -0.350808548221E+03    0.14497E-02   -0.21945E+00  8160   0.181E+00    0.272E-01
RMM:   2    -0.350809694592E+03   -0.11464E-02   -0.31326E-02  7945   0.208E-01    0.298E-02
RMM:   3    -0.350809756832E+03   -0.62240E-04   -0.14278E-03  5977   0.650E-02    0.185E-02
RMM:   4    -0.350809771533E+03   -0.14701E-04   -0.27314E-04  4926   0.243E-02
  71 F= -.35080977E+03 E0= -.35079501E+03  d E =-.590339E-01
       N       E                     dE             d eps       ncg     rms          rms(c)
DAV:   1    -0.350809600093E+03    0.15674E-03   -0.11139E+00  8160   0.129E+00    0.198E-01
RMM:   2    -0.350810288172E+03   -0.68808E-03   -0.13334E-02  7496   0.139E-01    0.130E-01
RMM:   3    -0.350810111571E+03    0.17660E-03   -0.89911E-04  5645   0.429E-02    0.859E-02
RMM:   4    -0.350810018153E+03    0.93418E-04   -0.46404E-04  5244   0.283E-02
  72 F= -.35081002E+03 E0= -.35079526E+03  d E =-.590229E-01
       N       E                     dE             d eps       ncg     rms          rms(c)
DAV:   1    -0.350809227229E+03    0.88434E-03   -0.21815E+00  8160   0.183E+00    0.265E-01
RMM:   2    -0.350810392216E+03   -0.11650E-02   -0.29816E-02  7955   0.206E-01    0.523E-02
RMM:   3    -0.350810416071E+03   -0.23854E-04   -0.12913E-03  6189   0.610E-02    0.350E-02
RMM:   4    -0.350810437261E+03   -0.21190E-04   -0.25942E-04  4918   0.250E-02
  73 F= -.35081044E+03 E0= -.35079569E+03  d E =-.589860E-01
       N       E                     dE             d eps       ncg     rms          rms(c)
DAV:   1    -0.350812311075E+03   -0.18950E-02   -0.64898E-01  8160   0.998E-01    0.185E-01
RMM:   2    -0.350812626415E+03   -0.31534E-03   -0.10121E-02  7274   0.116E-01    0.898E-02
RMM:   3    -0.350812537759E+03    0.88656E-04   -0.65869E-04  5484   0.385E-02
  74 F= -.35081254E+03 E0= -.35079779E+03  d E =-.589998E-01
       N       E                     dE             d eps       ncg     rms          rms(c)
DAV:   1    -0.350813014567E+03   -0.38815E-03   -0.36329E-01  8376   0.625E-01    0.245E-01
RMM:   2    -0.350812577781E+03    0.43679E-03   -0.89575E-03  7274   0.104E-01    0.453E-02
RMM:   3    -0.350812549190E+03    0.28591E-04   -0.50742E-04  5197   0.342E-02
  75 F= -.35081255E+03 E0= -.35079780E+03  d E =-.589996E-01
       N       E                     dE             d eps       ncg     rms          rms(c)
DAV:   1    -0.350813440944E+03   -0.86316E-03   -0.16640E-01  8288   0.417E-01    0.120E-01
RMM:   2    -0.350813601418E+03   -0.16047E-03   -0.20179E-03  5851   0.482E-02    0.736E-02
RMM:   3    -0.350813562570E+03    0.38849E-04   -0.15163E-04  4716   0.236E-02
  76 F= -.35081356E+03 E0= -.35079881E+03  d E =-.589983E-01
       N       E                     dE             d eps       ncg     rms          rms(c)
DAV:   1    -0.350813687581E+03   -0.86163E-04   -0.34113E-01  8248   0.597E-01    0.201E-01
RMM:   2    -0.350813633784E+03    0.53797E-04   -0.49789E-03  6544   0.769E-02    0.257E-02
RMM:   3    -0.350813624060E+03    0.97241E-05   -0.22643E-04  4785   0.278E-02
  77 F= -.35081362E+03 E0= -.35079887E+03  d E =-.590062E-01
       N       E                     dE             d eps       ncg     rms          rms(c)
DAV:   1    -0.350814469596E+03   -0.83581E-03   -0.16785E-01  8360   0.419E-01    0.135E-01
RMM:   2    -0.350814477695E+03   -0.80993E-05   -0.20017E-03  5699   0.483E-02    0.617E-02
RMM:   3    -0.350814493198E+03   -0.15503E-04   -0.17815E-04  4792   0.227E-02
  78 F= -.35081449E+03 E0= -.35079974E+03  d E =-.590071E-01
       N       E                     dE             d eps       ncg     rms          rms(c)
DAV:   1    -0.350814158512E+03    0.31918E-03   -0.32689E-01  8320   0.584E-01    0.161E-01
RMM:   2    -0.350814353915E+03   -0.19540E-03   -0.29617E-03  6483   0.627E-02    0.213E-02
RMM:   3    -0.350814405674E+03   -0.51759E-04   -0.15156E-04  4717   0.213E-02
  79 F= -.35081441E+03 E0= -.35079965E+03  d E =-.590061E-01
       N       E                     dE             d eps       ncg     rms          rms(c)
DAV:   1    -0.350812629526E+03    0.17244E-02   -0.17154E-01  8304   0.434E-01    0.147E-01
RMM:   2    -0.350812670561E+03   -0.41035E-04   -0.31051E-03  6115   0.627E-02    0.867E-02
RMM:   3    -0.350812592554E+03    0.78006E-04   -0.33011E-04  4978   0.282E-02
  80 F= -.35081259E+03 E0= -.35079784E+03  d E =-.589990E-01
       N       E                     dE             d eps       ncg     rms          rms(c)
DAV:   1    -0.350813072414E+03   -0.40185E-03   -0.35597E-01  8192   0.610E-01    0.242E-01
RMM:   2    -0.350812559967E+03    0.51245E-03   -0.88411E-03  7421   0.104E-01    0.520E-02
RMM:   3    -0.350812592096E+03   -0.32129E-04   -0.42932E-04  5190   0.346E-02
  81 F= -.35081259E+03 E0= -.35079784E+03  d E =-.590088E-01
       N       E                     dE             d eps       ncg     rms          rms(c)
DAV:   1    -0.350814080745E+03   -0.15208E-02   -0.18415E-01  8352   0.443E-01    0.193E-01
RMM:   2    -0.350813672823E+03    0.40792E-03   -0.51004E-03  6425   0.774E-02    0.747E-02
RMM:   3    -0.350813660743E+03    0.12080E-04   -0.35709E-04  4989   0.283E-02
  82 F= -.35081366E+03 E0= -.35079890E+03  d E =-.590402E-01
       N       E                     dE             d eps       ncg     rms          rms(c)
DAV:   1    -0.350813566187E+03    0.10664E-03   -0.34299E-01  8272   0.596E-01    0.203E-01
RMM:   2    -0.350813363165E+03    0.20302E-03   -0.54012E-03  6687   0.802E-02    0.318E-02
RMM:   3    -0.350813367221E+03   -0.40565E-05   -0.25849E-04  4888   0.286E-02
  83 F= -.35081337E+03 E0= -.35079862E+03  d E =-.589766E-01
       N       E                     dE             d eps       ncg     rms          rms(c)
DAV:   1    -0.350814460627E+03   -0.10975E-02   -0.16819E-01  8368   0.417E-01    0.137E-01
RMM:   2    -0.350814447448E+03    0.13179E-04   -0.22487E-03  5821   0.503E-02    0.685E-02
RMM:   3    -0.350814479905E+03   -0.32457E-04   -0.21101E-04  4858   0.243E-02
  84 F= -.35081448E+03 E0= -.35079972E+03  d E =-.590246E-01
       N       E                     dE             d eps       ncg     rms          rms(c)
DAV:   1    -0.350814248819E+03    0.19863E-03   -0.32717E-01  8336   0.582E-01    0.159E-01
RMM:   2    -0.350814507586E+03   -0.25877E-03   -0.33695E-03  6406   0.656E-02    0.463E-02
RMM:   3    -0.350814470061E+03    0.37525E-04   -0.19716E-04  4802   0.258E-02
  85 F= -.35081447E+03 E0= -.35079973E+03  d E =-.589801E-01
       N       E                     dE             d eps       ncg     rms          rms(c)
DAV:   1    -0.350814331147E+03    0.17644E-03   -0.16574E-01  8168   0.461E-01    0.119E-01
RMM:   2    -0.350814462494E+03   -0.13135E-03   -0.12489E-03  5782   0.444E-02    0.643E-02
RMM:   3    -0.350814444486E+03    0.18007E-04   -0.15244E-04  4738   0.204E-02
  86 F= -.35081444E+03 E0= -.35079970E+03  d E =-.589977E-01
       N       E                     dE             d eps       ncg     rms          rms(c)
DAV:   1    -0.350814357220E+03    0.10527E-03   -0.32622E-01  8224   0.631E-01    0.155E-01
RMM:   2    -0.350814698536E+03   -0.34132E-03   -0.27361E-03  6568   0.644E-02    0.283E-02
RMM:   3    -0.350814680115E+03    0.18420E-04   -0.14395E-04  4703   0.216E-02
  87 F= -.35081468E+03 E0= -.35079993E+03  d E =-.590154E-01
       N       E                     dE             d eps       ncg     rms          rms(c)
DAV:   1    -0.350814283695E+03    0.41484E-03   -0.16421E-01  8376   0.446E-01    0.121E-01
RMM:   2    -0.350814402660E+03   -0.11897E-03   -0.16396E-03  5987   0.479E-02    0.684E-02
RMM:   3    -0.350814396121E+03    0.65389E-05   -0.18258E-04  4824   0.233E-02
  88 F= -.35081440E+03 E0= -.35079964E+03  d E =-.590133E-01
       N       E                     dE             d eps       ncg     rms          rms(c)
DAV:   1    -0.350813814953E+03    0.58771E-03   -0.33185E-01  8400   0.634E-01    0.179E-01
RMM:   2    -0.350813917339E+03   -0.10239E-03   -0.41608E-03  6798   0.723E-02    0.283E-02
RMM:   3    -0.350813943304E+03   -0.25965E-04   -0.23666E-04  4880   0.238E-02
  89 F= -.35081394E+03 E0= -.35079919E+03  d E =-.590015E-01
       N       E                     dE             d eps       ncg     rms          rms(c)
DAV:   1    -0.350812427410E+03    0.14899E-02   -0.17536E-01  8400   0.463E-01    0.183E-01
RMM:   2    -0.350812186735E+03    0.24068E-03   -0.50035E-03  6803   0.787E-02    0.860E-02
RMM:   3    -0.350812110426E+03    0.76309E-04   -0.64375E-04  5459   0.316E-02
  90 F= -.35081211E+03 E0= -.35079736E+03  d E =-.590118E-01
       N       E                     dE             d eps       ncg     rms          rms(c)
DAV:   1    -0.350812616300E+03   -0.42956E-03   -0.36040E-01  8424   0.669E-01    0.262E-01
RMM:   2    -0.350811807632E+03    0.80867E-03   -0.13119E-02  7819   0.124E-01    0.505E-02
RMM:   3    -0.350811909975E+03   -0.10234E-03   -0.61974E-04  5443   0.388E-02    0.241E-02
RMM:   4    -0.350811954823E+03   -0.44848E-04   -0.10463E-04  4591   0.194E-02
  91 F= -.35081195E+03 E0= -.35079720E+03  d E =-.590169E-01
