       N       E                     dE             d eps       ncg     rms          rms(c)
DAV:   1     0.352441661265E+04    0.35244E+04   -0.14351E+05  4824   0.117E+03
DAV:   2     0.187540012965E+03   -0.33369E+04   -0.30659E+04  5008   0.447E+02
DAV:   3    -0.244718689150E+03   -0.43226E+03   -0.40240E+03  6576   0.130E+02
DAV:   4    -0.277638117726E+03   -0.32919E+02   -0.29712E+02  6960   0.366E+01
DAV:   5    -0.278738314185E+03   -0.11002E+01   -0.10744E+01  6736   0.581E+00    0.279E+01
RMM:   6    -0.270127690986E+03    0.86106E+01   -0.14288E+01  5390   0.704E+00    0.229E+01
RMM:   7    -0.285801973400E+03   -0.15674E+02   -0.19491E+01  5370   0.755E+00    0.308E+01
RMM:   8    -0.270443563014E+03    0.15358E+02   -0.13451E+01  5301   0.653E+00    0.240E+01
RMM:   9    -0.255922061902E+03    0.14522E+02   -0.16390E+01  4858   0.102E+01    0.126E+01
RMM:  10    -0.254323958548E+03    0.15981E+01   -0.34922E+00  5831   0.338E+00    0.780E+00
RMM:  11    -0.253809228808E+03    0.51473E+00   -0.17016E+00  5011   0.278E+00    0.375E+00
RMM:  12    -0.253729266384E+03    0.79962E-01   -0.71981E-01  5078   0.191E+00    0.286E+00
RMM:  13    -0.253675309651E+03    0.53957E-01   -0.20037E-01  5349   0.928E-01    0.200E+00
RMM:  14    -0.253664322325E+03    0.10987E-01   -0.98149E-02  4820   0.667E-01    0.116E+00
RMM:  15    -0.253654400962E+03    0.99214E-02   -0.61478E-02  4862   0.569E-01    0.804E-01
RMM:  16    -0.253648848072E+03    0.55529E-02   -0.24608E-02  5305   0.324E-01    0.547E-01
RMM:  17    -0.253656002752E+03   -0.71547E-02   -0.14716E-02  4998   0.222E-01    0.435E-01
RMM:  18    -0.253657216874E+03   -0.12141E-02   -0.91526E-03  4894   0.181E-01    0.311E-01
RMM:  19    -0.253656286217E+03    0.93066E-03   -0.38385E-03  4807   0.139E-01    0.175E-01
RMM:  20    -0.253655898856E+03    0.38736E-03   -0.21158E-03  4864   0.974E-02    0.144E-01
RMM:  21    -0.253655258462E+03    0.64039E-03   -0.17220E-03  4719   0.900E-02    0.883E-02
RMM:  22    -0.253654863944E+03    0.39452E-03   -0.62915E-04  3699   0.526E-02    0.454E-02
RMM:  23    -0.253654687451E+03    0.17649E-03   -0.40867E-04  3234   0.454E-02    0.295E-02
RMM:  24    -0.253654746350E+03   -0.58899E-04   -0.51319E-04  3465   0.484E-02
   1 F= -.25365475E+03 E0= -.25366255E+03  d E =0.312345E-01
       N       E                     dE             d eps       ncg     rms          rms(c)
DAV:   1    -0.253649140125E+03    0.55473E-02   -0.54960E-01  5024   0.134E+00    0.124E-01
RMM:   2    -0.253649864264E+03   -0.72414E-03   -0.78970E-03  4209   0.145E-01    0.118E-01
RMM:   3    -0.253649817663E+03    0.46600E-04   -0.36059E-04  2992   0.452E-02
   2 F= -.25364982E+03 E0= -.25365768E+03  d E =0.314313E-01
       N       E                     dE             d eps       ncg     rms          rms(c)
DAV:   1    -0.253647380245E+03    0.24840E-02   -0.22405E+00  4928   0.270E+00    0.245E-01
RMM:   2    -0.253649131200E+03   -0.17510E-02   -0.31972E-02  4729   0.295E-01    0.450E-02
RMM:   3    -0.253649279482E+03   -0.14828E-03   -0.14097E-03  3636   0.842E-02    0.259E-02
RMM:   4    -0.253649353994E+03   -0.74513E-04   -0.30504E-04  3027   0.355E-02
   3 F= -.25364935E+03 E0= -.25365721E+03  d E =0.314044E-01
       N       E                     dE             d eps       ncg     rms          rms(c)
DAV:   1    -0.253649452808E+03   -0.17333E-03   -0.11140E+00  4928   0.190E+00    0.179E-01
RMM:   2    -0.253650447595E+03   -0.99479E-03   -0.13768E-02  4411   0.193E-01    0.118E-01
RMM:   3    -0.253650247912E+03    0.19968E-03   -0.60412E-04  3218   0.538E-02    0.879E-02
RMM:   4    -0.253650054063E+03    0.19385E-03   -0.63735E-04  3387   0.420E-02    0.313E-02
RMM:   5    -0.253650153403E+03   -0.99340E-04   -0.16701E-04  2798   0.346E-02
   4 F= -.25365015E+03 E0= -.25365801E+03  d E =0.314207E-01
       N       E                     dE             d eps       ncg     rms          rms(c)
DAV:   1    -0.253647645874E+03    0.24082E-02   -0.21929E+00  4808   0.270E+00    0.240E-01
RMM:   2    -0.253649460003E+03   -0.18141E-02   -0.30297E-02  4627   0.287E-01    0.295E-02
RMM:   3    -0.253649576942E+03   -0.11694E-03   -0.12899E-03  3571   0.808E-02    0.199E-02
RMM:   4    -0.253649605153E+03   -0.28211E-04   -0.23413E-04  2870   0.304E-02
   5 F= -.25364961E+03 E0= -.25365744E+03  d E =0.313453E-01
       N       E                     dE             d eps       ncg     rms          rms(c)
DAV:   1    -0.253649712321E+03   -0.13538E-03   -0.10972E+00  4880   0.192E+00    0.175E-01
RMM:   2    -0.253650674959E+03   -0.96264E-03   -0.14335E-02  4491   0.197E-01    0.114E-01
RMM:   3    -0.253650614077E+03    0.60882E-04   -0.65945E-04  3258   0.560E-02
   6 F= -.25365061E+03 E0= -.25365843E+03  d E =0.312695E-01
       N       E                     dE             d eps       ncg     rms          rms(c)
DAV:   1    -0.253647926969E+03    0.27480E-02   -0.22123E+00  4800   0.282E+00    0.241E-01
RMM:   2    -0.253650060737E+03   -0.21338E-02   -0.33827E-02  4710   0.314E-01    0.307E-02
RMM:   3    -0.253650211528E+03   -0.15079E-03   -0.17022E-03  3923   0.919E-02    0.214E-02
RMM:   4    -0.253650221597E+03   -0.10069E-04   -0.28079E-04  2964   0.343E-02
   7 F= -.25365022E+03 E0= -.25365807E+03  d E =0.313741E-01
       N       E                     dE             d eps       ncg     rms          rms(c)
DAV:   1    -0.253649183900E+03    0.10276E-02   -0.10603E+00  4832   0.201E+00    0.166E-01
RMM:   2    -0.253650632611E+03   -0.14487E-02   -0.17885E-02  4673   0.236E-01    0.122E-01
RMM:   3    -0.253650604948E+03    0.27663E-04   -0.82885E-04  3407   0.711E-02
   8 F= -.25365060E+03 E0= -.25365845E+03  d E =0.313605E-01
       N       E                     dE             d eps       ncg     rms          rms(c)
DAV:   1    -0.253646873228E+03    0.37594E-02   -0.22212E+00  4800   0.281E+00    0.251E-01
RMM:   2    -0.253649134914E+03   -0.22617E-02   -0.38109E-02  4778   0.338E-01    0.601E-02
RMM:   3    -0.253649369775E+03   -0.23486E-03   -0.20459E-03  4133   0.111E-01    0.309E-02
RMM:   4    -0.253649398647E+03   -0.28872E-04   -0.43878E-04  3156   0.377E-02
   9 F= -.25364940E+03 E0= -.25365725E+03  d E =0.313912E-01
       N       E                     dE             d eps       ncg     rms          rms(c)
DAV:   1    -0.253648774302E+03    0.59547E-03   -0.10887E+00  4864   0.201E+00    0.178E-01
RMM:   2    -0.253649819499E+03   -0.10452E-02   -0.15807E-02  4670   0.214E-01    0.124E-01
RMM:   3    -0.253649790729E+03    0.28770E-04   -0.65221E-04  3191   0.645E-02
  10 F= -.25364979E+03 E0= -.25365763E+03  d E =0.313719E-01
       N       E                     dE             d eps       ncg     rms          rms(c)
DAV:   1    -0.253647112199E+03    0.27073E-02   -0.22607E+00  4808   0.283E+00    0.254E-01
RMM:   2    -0.253648832157E+03   -0.17200E-02   -0.31627E-02  4752   0.306E-01    0.447E-02
RMM:   3    -0.253648946227E+03   -0.11407E-03   -0.13208E-03  3723   0.889E-02    0.309E-02
RMM:   4    -0.253648964450E+03   -0.18224E-04   -0.27672E-04  2921   0.338E-02
  11 F= -.25364896E+03 E0= -.25365682E+03  d E =0.314345E-01
       N       E                     dE             d eps       ncg     rms          rms(c)
DAV:   1    -0.253649947908E+03   -0.10017E-02   -0.10989E+00  4816   0.200E+00    0.179E-01
RMM:   2    -0.253650988690E+03   -0.10408E-02   -0.15323E-02  4660   0.217E-01    0.114E-01
RMM:   3    -0.253650920850E+03    0.67839E-04   -0.65009E-04  3273   0.660E-02
  12 F= -.25365092E+03 E0= -.25365875E+03  d E =0.313337E-01
       N       E                     dE             d eps       ncg     rms          rms(c)
DAV:   1    -0.253648861475E+03    0.21272E-02   -0.21790E+00  4856   0.288E+00    0.242E-01
RMM:   2    -0.253650989937E+03   -0.21285E-02   -0.34043E-02  4766   0.326E-01    0.665E-02
RMM:   3    -0.253651111324E+03   -0.12139E-03   -0.19520E-03  4032   0.117E-01    0.392E-02
RMM:   4    -0.253651117616E+03   -0.62920E-05   -0.49409E-04  3281   0.402E-02
  13 F= -.25365112E+03 E0= -.25365897E+03  d E =0.314008E-01
       N       E                     dE             d eps       ncg     rms          rms(c)
DAV:   1    -0.253649035306E+03    0.20760E-02   -0.11485E+00  4824   0.209E+00    0.169E-01
RMM:   2    -0.253650689427E+03   -0.16541E-02   -0.22069E-02  4729   0.259E-01    0.104E-01
RMM:   3    -0.253650743702E+03   -0.54275E-04   -0.13253E-03  3695   0.990E-02    0.871E-02
RMM:   4    -0.253650585172E+03    0.15853E-03   -0.89818E-04  3572   0.476E-02    0.245E-02
RMM:   5    -0.253650585852E+03   -0.67930E-06   -0.73365E-05  2622   0.255E-02
  14 F= -.25365059E+03 E0= -.25365843E+03  d E =0.313575E-01
       N       E                     dE             d eps       ncg     rms          rms(c)
DAV:   1    -0.253648308909E+03    0.22763E-02   -0.21613E+00  4800   0.284E+00    0.230E-01
RMM:   2    -0.253650333934E+03   -0.20250E-02   -0.32942E-02  4785   0.342E-01    0.317E-02
RMM:   3    -0.253650600745E+03   -0.26681E-03   -0.20246E-03  4073   0.123E-01    0.200E-02
RMM:   4    -0.253650666683E+03   -0.65938E-04   -0.46473E-04  3224   0.377E-02
  15 F= -.25365067E+03 E0= -.25365852E+03  d E =0.314088E-01
       N       E                     dE             d eps       ncg     rms          rms(c)
DAV:   1    -0.253649349103E+03    0.12516E-02   -0.10863E+00  4800   0.197E+00    0.173E-01
RMM:   2    -0.253650609987E+03   -0.12609E-02   -0.16236E-02  4713   0.232E-01    0.120E-01
RMM:   3    -0.253650507021E+03    0.10297E-03   -0.94453E-04  3546   0.781E-02    0.864E-02
RMM:   4    -0.253650360245E+03    0.14678E-03   -0.89681E-04  3688   0.481E-02    0.461E-02
RMM:   5    -0.253650353965E+03    0.62797E-05   -0.13683E-04  2749   0.303E-02
  16 F= -.25365035E+03 E0= -.25365821E+03  d E =0.314084E-01
       N       E                     dE             d eps       ncg     rms          rms(c)
DAV:   1    -0.253648166097E+03    0.21941E-02   -0.21625E+00  4800   0.274E+00    0.250E-01
RMM:   2    -0.253649742859E+03   -0.15768E-02   -0.31575E-02  4789   0.334E-01    0.323E-02
RMM:   3    -0.253649905367E+03   -0.16251E-03   -0.16991E-03  4021   0.110E-01    0.197E-02
RMM:   4    -0.253649942514E+03   -0.37147E-04   -0.39751E-04  3076   0.351E-02
  17 F= -.25364994E+03 E0= -.25365777E+03  d E =0.313035E-01
       N       E                     dE             d eps       ncg     rms          rms(c)
DAV:   1    -0.253651506942E+03   -0.16016E-02   -0.10497E+00  4800   0.199E+00    0.174E-01
RMM:   2    -0.253652581685E+03   -0.10747E-02   -0.14341E-02  4728   0.233E-01    0.108E-01
RMM:   3    -0.253652513986E+03    0.67699E-04   -0.10557E-03  3709   0.745E-02    0.570E-02
RMM:   4    -0.253652462674E+03    0.51312E-04   -0.40921E-04  3087   0.417E-02
  18 F= -.25365246E+03 E0= -.25366030E+03  d E =0.313528E-01
       N       E                     dE             d eps       ncg     rms          rms(c)
DAV:   1    -0.253650664286E+03    0.18497E-02   -0.19986E+00  4800   0.281E+00    0.253E-01
RMM:   2    -0.253652099493E+03   -0.14352E-02   -0.28174E-02  4800   0.365E-01    0.365E-02
RMM:   3    -0.253652299442E+03   -0.19995E-03   -0.20524E-03  4497   0.103E-01    0.257E-02
RMM:   4    -0.253652343626E+03   -0.44184E-04   -0.25314E-04  2930   0.327E-02
  19 F= -.25365234E+03 E0= -.25366020E+03  d E =0.314433E-01
       N       E                     dE             d eps       ncg     rms          rms(c)
DAV:   1    -0.253649390153E+03    0.29093E-02   -0.10166E+00  4800   0.203E+00    0.160E-01
RMM:   2    -0.253650885028E+03   -0.14949E-02   -0.18600E-02  4751   0.263E-01    0.101E-01
RMM:   3    -0.253650951674E+03   -0.66647E-04   -0.12908E-03  3765   0.887E-02    0.893E-02
RMM:   4    -0.253650857889E+03    0.93785E-04   -0.10358E-03  3599   0.536E-02    0.287E-02
RMM:   5    -0.253650840075E+03    0.17815E-04   -0.82002E-05  2600   0.304E-02
  20 F= -.25365084E+03 E0= -.25365871E+03  d E =0.314685E-01
       N       E                     dE             d eps       ncg     rms          rms(c)
DAV:   1    -0.253647524546E+03    0.33333E-02   -0.21155E+00  4800   0.278E+00    0.218E-01
RMM:   2    -0.253650175503E+03   -0.26510E-02   -0.35416E-02  4791   0.340E-01    0.363E-02
RMM:   3    -0.253650448246E+03   -0.27274E-03   -0.23958E-03  4102   0.131E-01    0.190E-02
RMM:   4    -0.253650502963E+03   -0.54717E-04   -0.51585E-04  3211   0.368E-02
  21 F= -.25365050E+03 E0= -.25365832E+03  d E =0.312496E-01
       N       E                     dE             d eps       ncg     rms          rms(c)
DAV:   1    -0.253649214479E+03    0.12338E-02   -0.10593E+00  4800   0.198E+00    0.153E-01
RMM:   2    -0.253650630601E+03   -0.14161E-02   -0.17388E-02  4725   0.234E-01    0.102E-01
RMM:   3    -0.253650658753E+03   -0.28152E-04   -0.11411E-03  3571   0.888E-02    0.752E-02
RMM:   4    -0.253650616530E+03    0.42223E-04   -0.80831E-04  3518   0.486E-02
  22 F= -.25365062E+03 E0= -.25365846E+03  d E =0.313852E-01
       N       E                     dE             d eps       ncg     rms          rms(c)
DAV:   1    -0.253648788445E+03    0.18703E-02   -0.21163E+00  4800   0.282E+00    0.229E-01
RMM:   2    -0.253651051335E+03   -0.22629E-02   -0.33148E-02  4784   0.344E-01    0.287E-02
RMM:   3    -0.253651262515E+03   -0.21118E-03   -0.21229E-03  4128   0.129E-01    0.192E-02
RMM:   4    -0.253651306594E+03   -0.44080E-04   -0.47792E-04  3193   0.370E-02
  23 F= -.25365131E+03 E0= -.25365916E+03  d E =0.314289E-01
       N       E                     dE             d eps       ncg     rms          rms(c)
DAV:   1    -0.253651707020E+03   -0.44451E-03   -0.99677E-01  4800   0.198E+00    0.189E-01
RMM:   2    -0.253652567984E+03   -0.86096E-03   -0.15368E-02  4773   0.250E-01    0.109E-01
RMM:   3    -0.253652585788E+03   -0.17804E-04   -0.13183E-03  3977   0.883E-02    0.744E-02
RMM:   4    -0.253652535471E+03    0.50317E-04   -0.57250E-04  3252   0.497E-02
  24 F= -.25365254E+03 E0= -.25366031E+03  d E =0.311120E-01
       N       E                     dE             d eps       ncg     rms          rms(c)
DAV:   1    -0.253650458898E+03    0.21269E-02   -0.19506E+00  4800   0.278E+00    0.267E-01
RMM:   2    -0.253652182451E+03   -0.17236E-02   -0.32106E-02  4823   0.372E-01    0.382E-02
RMM:   3    -0.253652401454E+03   -0.21900E-03   -0.25802E-03  4690   0.120E-01    0.285E-02
RMM:   4    -0.253652422008E+03   -0.20554E-04   -0.31284E-04  3032   0.325E-02
  25 F= -.25365242E+03 E0= -.25366028E+03  d E =0.314474E-01
       N       E                     dE             d eps       ncg     rms          rms(c)
DAV:   1    -0.253648171082E+03    0.42304E-02   -0.10759E+00  4800   0.203E+00    0.187E-01
RMM:   2    -0.253649522297E+03   -0.13512E-02   -0.19291E-02  4749   0.257E-01    0.123E-01
RMM:   3    -0.253649567388E+03   -0.45090E-04   -0.10429E-03  3584   0.851E-02    0.111E-01
RMM:   4    -0.253649277273E+03    0.29011E-03   -0.97324E-04  3569   0.500E-02    0.408E-02
RMM:   5    -0.253649313511E+03   -0.36238E-04   -0.15771E-04  2754   0.330E-02
  26 F= -.25364931E+03 E0= -.25365714E+03  d E =0.313127E-01
       N       E                     dE             d eps       ncg     rms          rms(c)
DAV:   1    -0.253647953302E+03    0.13240E-02   -0.22130E+00  4800   0.270E+00    0.256E-01
RMM:   2    -0.253649302564E+03   -0.13493E-02   -0.29145E-02  4705   0.291E-01    0.336E-02
RMM:   3    -0.253649394804E+03   -0.92240E-04   -0.12363E-03  3578   0.859E-02    0.225E-02
RMM:   4    -0.253649405139E+03   -0.10335E-04   -0.25957E-04  2887   0.314E-02
  27 F= -.25364941E+03 E0= -.25365725E+03  d E =0.313896E-01
       N       E                     dE             d eps       ncg     rms          rms(c)
DAV:   1    -0.253649382573E+03    0.12231E-04   -0.10912E+00  4800   0.191E+00    0.181E-01
RMM:   2    -0.253650275241E+03   -0.89267E-03   -0.15379E-02  4632   0.206E-01    0.117E-01
RMM:   3    -0.253650198102E+03    0.77139E-04   -0.74336E-04  3261   0.633E-02
  28 F= -.25365020E+03 E0= -.25365803E+03  d E =0.313234E-01
       N       E                     dE             d eps       ncg     rms          rms(c)
DAV:   1    -0.253647452192E+03    0.28230E-02   -0.22025E+00  4840   0.270E+00    0.249E-01
RMM:   2    -0.253649400645E+03   -0.19485E-02   -0.35886E-02  4765   0.322E-01    0.640E-02
RMM:   3    -0.253649503984E+03   -0.10334E-03   -0.17099E-03  3899   0.101E-01    0.514E-02
RMM:   4    -0.253649542222E+03   -0.38237E-04   -0.44671E-04  3185   0.386E-02
  29 F= -.25364954E+03 E0= -.25365739E+03  d E =0.313855E-01
       N       E                     dE             d eps       ncg     rms          rms(c)
DAV:   1    -0.253650046451E+03   -0.54247E-03   -0.10876E+00  4808   0.194E+00    0.182E-01
RMM:   2    -0.253651062729E+03   -0.10163E-02   -0.15895E-02  4643   0.218E-01    0.117E-01
RMM:   3    -0.253650909592E+03    0.15314E-03   -0.96295E-04  3505   0.730E-02    0.837E-02
RMM:   4    -0.253650808811E+03    0.10078E-03   -0.10979E-03  3612   0.511E-02    0.433E-02
RMM:   5    -0.253650825667E+03   -0.16856E-04   -0.10521E-04  2668   0.318E-02
  30 F= -.25365083E+03 E0= -.25365867E+03  d E =0.313767E-01
       N       E                     dE             d eps       ncg     rms          rms(c)
DAV:   1    -0.253649083338E+03    0.17255E-02   -0.21457E+00  4800   0.279E+00    0.245E-01
RMM:   2    -0.253650784703E+03   -0.17014E-02   -0.31060E-02  4735   0.308E-01    0.399E-02
RMM:   3    -0.253650899784E+03   -0.11508E-03   -0.16841E-03  3848   0.110E-01    0.259E-02
RMM:   4    -0.253650940009E+03   -0.40225E-04   -0.37340E-04  3090   0.348E-02
  31 F= -.25365094E+03 E0= -.25365880E+03  d E =0.314237E-01
       N       E                     dE             d eps       ncg     rms          rms(c)
DAV:   1    -0.253648829635E+03    0.20701E-02   -0.11464E+00  4800   0.201E+00    0.176E-01
RMM:   2    -0.253650323137E+03   -0.14935E-02   -0.19952E-02  4598   0.236E-01    0.118E-01
RMM:   3    -0.253650319023E+03    0.41144E-05   -0.89626E-04  3369   0.713E-02
  32 F= -.25365032E+03 E0= -.25365817E+03  d E =0.314121E-01
       N       E                     dE             d eps       ncg     rms          rms(c)
DAV:   1    -0.253647227934E+03    0.30952E-02   -0.22293E+00  4800   0.270E+00    0.230E-01
RMM:   2    -0.253649691667E+03   -0.24637E-02   -0.33866E-02  4670   0.305E-01    0.626E-02
RMM:   3    -0.253649735428E+03   -0.43761E-04   -0.14813E-03  3679   0.861E-02    0.414E-02
RMM:   4    -0.253649728589E+03    0.68394E-05   -0.27196E-04  2908   0.335E-02
  33 F= -.25364973E+03 E0= -.25365755E+03  d E =0.312725E-01
       N       E                     dE             d eps       ncg     rms          rms(c)
DAV:   1    -0.253648642538E+03    0.10929E-02   -0.11151E+00  4800   0.188E+00    0.179E-01
RMM:   2    -0.253649532017E+03   -0.88948E-03   -0.13626E-02  4376   0.194E-01    0.116E-01
RMM:   3    -0.253649445095E+03    0.86922E-04   -0.57746E-04  3134   0.518E-02
  34 F= -.25364945E+03 E0= -.25365730E+03  d E =0.314046E-01
       N       E                     dE             d eps       ncg     rms          rms(c)
DAV:   1    -0.253648045747E+03    0.14863E-02   -0.22262E+00  4800   0.268E+00    0.238E-01
RMM:   2    -0.253650388581E+03   -0.23428E-02   -0.33593E-02  4662   0.302E-01    0.606E-02
RMM:   3    -0.253650416637E+03   -0.28056E-04   -0.15348E-03  3706   0.879E-02    0.388E-02
RMM:   4    -0.253650418181E+03   -0.15434E-05   -0.33744E-04  3045   0.353E-02
  35 F= -.25365042E+03 E0= -.25365827E+03  d E =0.314151E-01
       N       E                     dE             d eps       ncg     rms          rms(c)
DAV:   1    -0.253649454394E+03    0.96224E-03   -0.10883E+00  4800   0.195E+00    0.172E-01
RMM:   2    -0.253650733352E+03   -0.12790E-02   -0.16659E-02  4551   0.216E-01    0.114E-01
RMM:   3    -0.253650657150E+03    0.76202E-04   -0.10363E-03  3536   0.701E-02    0.788E-02
RMM:   4    -0.253650589253E+03    0.67898E-04   -0.57201E-04  3300   0.446E-02
  36 F= -.25365059E+03 E0= -.25365841E+03  d E =0.312812E-01
       N       E                     dE             d eps       ncg     rms          rms(c)
DAV:   1    -0.253647826368E+03    0.28308E-02   -0.21769E+00  4800   0.277E+00    0.239E-01
RMM:   2    -0.253649707005E+03   -0.18806E-02   -0.31318E-02  4697   0.299E-01    0.403E-02
RMM:   3    -0.253649846224E+03   -0.13922E-03   -0.14571E-03  3788   0.805E-02    0.266E-02
RMM:   4    -0.253649872551E+03   -0.26327E-04   -0.28567E-04  2978   0.351E-02
  37 F= -.25364987E+03 E0= -.25365772E+03  d E =0.313854E-01
       N       E                     dE             d eps       ncg     rms          rms(c)
DAV:   1    -0.253651938848E+03   -0.20926E-02   -0.63299E-01  4800   0.149E+00    0.171E-01
RMM:   2    -0.253652606821E+03   -0.66797E-03   -0.11737E-02  4471   0.181E-01    0.947E-02
RMM:   3    -0.253652533393E+03    0.73429E-04   -0.84581E-04  3416   0.575E-02
  38 F= -.25365253E+03 E0= -.25366038E+03  d E =0.313769E-01
       N       E                     dE             d eps       ncg     rms          rms(c)
DAV:   1    -0.253652843570E+03   -0.23675E-03   -0.36111E-01  4824   0.919E-01    0.264E-01
RMM:   2    -0.253652120646E+03    0.72292E-03   -0.13514E-02  4544   0.174E-01    0.493E-02
RMM:   3    -0.253652184287E+03   -0.63641E-04   -0.63413E-04  3296   0.566E-02
  39 F= -.25365218E+03 E0= -.25366003E+03  d E =0.313846E-01
       N       E                     dE             d eps       ncg     rms          rms(c)
DAV:   1    -0.253654571230E+03   -0.24506E-02   -0.17582E-01  4872   0.648E-01    0.177E-01
RMM:   2    -0.253654280613E+03    0.29062E-03   -0.43910E-03  3996   0.100E-01    0.668E-02
RMM:   3    -0.253654298459E+03   -0.17846E-04   -0.43380E-04  3121   0.407E-02
  40 F= -.25365430E+03 E0= -.25366211E+03  d E =0.312620E-01
       N       E                     dE             d eps       ncg     rms          rms(c)
DAV:   1    -0.253654146593E+03    0.13402E-03   -0.33416E-01  4816   0.881E-01    0.172E-01
RMM:   2    -0.253654303202E+03   -0.15661E-03   -0.37947E-03  4022   0.101E-01    0.313E-02
RMM:   3    -0.253654303226E+03   -0.24338E-07   -0.19521E-04  2803   0.356E-02
  41 F= -.25365430E+03 E0= -.25366217E+03  d E =0.314561E-01
       N       E                     dE             d eps       ncg     rms          rms(c)
DAV:   1    -0.253653886305E+03    0.41690E-03   -0.16519E-01  4880   0.619E-01    0.115E-01
RMM:   2    -0.253654061972E+03   -0.17567E-03   -0.15512E-03  3576   0.639E-02    0.671E-02
RMM:   3    -0.253653976558E+03    0.85414E-04   -0.27867E-04  2956   0.355E-02
  42 F= -.25365398E+03 E0= -.25366182E+03  d E =0.313826E-01
       N       E                     dE             d eps       ncg     rms          rms(c)
DAV:   1    -0.253654176420E+03   -0.11445E-03   -0.33937E-01  4848   0.887E-01    0.187E-01
RMM:   2    -0.253654305642E+03   -0.12922E-03   -0.41744E-03  4119   0.105E-01    0.282E-02
RMM:   3    -0.253654291742E+03    0.13900E-04   -0.21220E-04  2828   0.350E-02
  43 F= -.25365429E+03 E0= -.25366214E+03  d E =0.313992E-01
       N       E                     dE             d eps       ncg     rms          rms(c)
DAV:   1    -0.253654468365E+03   -0.16272E-03   -0.17108E-01  4912   0.664E-01    0.135E-01
RMM:   2    -0.253654497683E+03   -0.29318E-04   -0.17054E-03  3632   0.718E-02    0.695E-02
RMM:   3    -0.253654457803E+03    0.39880E-04   -0.30937E-04  2938   0.354E-02
  44 F= -.25365446E+03 E0= -.25366232E+03  d E =0.314421E-01
       N       E                     dE             d eps       ncg     rms          rms(c)
DAV:   1    -0.253653915263E+03    0.58242E-03   -0.33756E-01  4800   0.894E-01    0.179E-01
RMM:   2    -0.253654104958E+03   -0.18970E-03   -0.38679E-03  3934   0.983E-02    0.293E-02
RMM:   3    -0.253654067025E+03    0.37933E-04   -0.19138E-04  2847   0.357E-02
  45 F= -.25365407E+03 E0= -.25366190E+03  d E =0.313413E-01
       N       E                     dE             d eps       ncg     rms          rms(c)
DAV:   1    -0.253652987173E+03    0.11178E-02   -0.17635E-01  4984   0.645E-01    0.176E-01
RMM:   2    -0.253652799676E+03    0.18750E-03   -0.32868E-03  3924   0.958E-02    0.855E-02
RMM:   3    -0.253652724631E+03    0.75044E-04   -0.66789E-04  3306   0.411E-02
  46 F= -.25365272E+03 E0= -.25366057E+03  d E =0.313815E-01
       N       E                     dE             d eps       ncg     rms          rms(c)
DAV:   1    -0.253653465200E+03   -0.66552E-03   -0.36302E-01  4800   0.931E-01    0.255E-01
RMM:   2    -0.253652768462E+03    0.69674E-03   -0.99207E-03  4341   0.152E-01    0.302E-02
RMM:   3    -0.253652804851E+03   -0.36389E-04   -0.45881E-04  3148   0.503E-02
  47 F= -.25365280E+03 E0= -.25366066E+03  d E =0.314175E-01
       N       E                     dE             d eps       ncg     rms          rms(c)
DAV:   1    -0.253653964967E+03   -0.11965E-02   -0.18355E-01  4952   0.660E-01    0.198E-01
RMM:   2    -0.253653465196E+03    0.49977E-03   -0.56667E-03  4100   0.117E-01    0.671E-02
RMM:   3    -0.253653440658E+03    0.24538E-04   -0.45315E-04  3174   0.436E-02
  48 F= -.25365344E+03 E0= -.25366127E+03  d E =0.313361E-01
       N       E                     dE             d eps       ncg     rms          rms(c)
DAV:   1    -0.253654219021E+03   -0.75383E-03   -0.34733E-01  4976   0.906E-01    0.209E-01
RMM:   2    -0.253654067042E+03    0.15198E-03   -0.55126E-03  4167   0.115E-01    0.253E-02
RMM:   3    -0.253654084110E+03   -0.17068E-04   -0.34397E-04  3004   0.413E-02
  49 F= -.25365408E+03 E0= -.25366192E+03  d E =0.313487E-01
       N       E                     dE             d eps       ncg     rms          rms(c)
DAV:   1    -0.253653942076E+03    0.12497E-03   -0.17229E-01  4992   0.696E-01    0.150E-01
RMM:   2    -0.253653955566E+03   -0.13490E-04   -0.28714E-03  3851   0.891E-02    0.809E-02
RMM:   3    -0.253653906871E+03    0.48696E-04   -0.59820E-04  3193   0.411E-02
  50 F= -.25365391E+03 E0= -.25366170E+03  d E =0.311658E-01
       N       E                     dE             d eps       ncg     rms          rms(c)
DAV:   1    -0.253653361145E+03    0.59442E-03   -0.34663E-01  4824   0.900E-01    0.218E-01
RMM:   2    -0.253653035380E+03    0.32576E-03   -0.71954E-03  4425   0.134E-01    0.306E-02
RMM:   3    -0.253653059518E+03   -0.24138E-04   -0.36413E-04  3016   0.484E-02
  51 F= -.25365306E+03 E0= -.25366091E+03  d E =0.313869E-01
       N       E                     dE             d eps       ncg     rms          rms(c)
DAV:   1    -0.253653037739E+03   -0.23595E-05   -0.16344E-01  4824   0.619E-01    0.113E-01
RMM:   2    -0.253653177717E+03   -0.13998E-03   -0.14290E-03  3610   0.662E-02    0.725E-02
RMM:   3    -0.253653153533E+03    0.24184E-04   -0.30713E-04  2938   0.339E-02
  52 F= -.25365315E+03 E0= -.25366102E+03  d E =0.314504E-01
       N       E                     dE             d eps       ncg     rms          rms(c)
DAV:   1    -0.253652869375E+03    0.30834E-03   -0.35548E-01  4888   0.917E-01    0.244E-01
RMM:   2    -0.253652367594E+03    0.50178E-03   -0.86159E-03  4510   0.146E-01    0.290E-02
RMM:   3    -0.253652390173E+03   -0.22579E-04   -0.45172E-04  3122   0.493E-02
  53 F= -.25365239E+03 E0= -.25366024E+03  d E =0.313808E-01
       N       E                     dE             d eps       ncg     rms          rms(c)
DAV:   1    -0.253654730078E+03   -0.23625E-02   -0.17004E-01  4984   0.631E-01    0.145E-01
RMM:   2    -0.253654621360E+03    0.10872E-03   -0.26367E-03  3957   0.848E-02    0.592E-02
RMM:   3    -0.253654671207E+03   -0.49847E-04   -0.25023E-04  2928   0.375E-02
  54 F= -.25365467E+03 E0= -.25366256E+03  d E =0.315399E-01
       N       E                     dE             d eps       ncg     rms          rms(c)
DAV:   1    -0.253654115443E+03    0.50592E-03   -0.32889E-01  4880   0.878E-01    0.162E-01
RMM:   2    -0.253654374892E+03   -0.25945E-03   -0.29863E-03  3968   0.929E-02    0.268E-02
RMM:   3    -0.253654374688E+03    0.20395E-06   -0.15186E-04  2740   0.334E-02
  55 F= -.25365437E+03 E0= -.25366222E+03  d E =0.313856E-01
       N       E                     dE             d eps       ncg     rms          rms(c)
DAV:   1    -0.253654041605E+03    0.33329E-03   -0.16486E-01  4840   0.682E-01    0.124E-01
RMM:   2    -0.253654161101E+03   -0.11950E-03   -0.18292E-03  3737   0.763E-02    0.692E-02
RMM:   3    -0.253654148776E+03    0.12325E-04   -0.59638E-04  3211   0.405E-02
  56 F= -.25365415E+03 E0= -.25366197E+03  d E =0.312755E-01
       N       E                     dE             d eps       ncg     rms          rms(c)
DAV:   1    -0.253653987916E+03    0.17318E-03   -0.33577E-01  4888   0.929E-01    0.192E-01
RMM:   2    -0.253653865050E+03    0.12287E-03   -0.48129E-03  4374   0.116E-01    0.205E-02
RMM:   3    -0.253653878514E+03   -0.13464E-04   -0.21891E-04  2831   0.395E-02
  57 F= -.25365388E+03 E0= -.25366173E+03  d E =0.314027E-01
       N       E                     dE             d eps       ncg     rms          rms(c)
DAV:   1    -0.253653591637E+03    0.27341E-03   -0.18034E-01  4976   0.687E-01    0.187E-01
RMM:   2    -0.253653212829E+03    0.37881E-03   -0.42289E-03  4314   0.114E-01    0.820E-02
RMM:   3    -0.253653155884E+03    0.56944E-04   -0.57302E-04  3220   0.475E-02
  58 F= -.25365316E+03 E0= -.25366100E+03  d E =0.313949E-01
       N       E                     dE             d eps       ncg     rms          rms(c)
DAV:   1    -0.253653468362E+03   -0.25553E-03   -0.35307E-01  4904   0.953E-01    0.244E-01
RMM:   2    -0.253652752173E+03    0.71619E-03   -0.85706E-03  4554   0.155E-01    0.281E-02
RMM:   3    -0.253652790259E+03   -0.38086E-04   -0.43279E-04  3076   0.543E-02
  59 F= -.25365279E+03 E0= -.25366063E+03  d E =0.313654E-01
       N       E                     dE             d eps       ncg     rms          rms(c)
DAV:   1    -0.253654349957E+03   -0.15978E-02   -0.17815E-01  4912   0.691E-01    0.189E-01
RMM:   2    -0.253653808660E+03    0.54130E-03   -0.49872E-03  4391   0.118E-01    0.646E-02
RMM:   3    -0.253653865012E+03   -0.56352E-04   -0.42845E-04  3093   0.463E-02
  60 F= -.25365387E+03 E0= -.25366175E+03  d E =0.315210E-01
       N       E                     dE             d eps       ncg     rms          rms(c)
DAV:   1    -0.253654102884E+03   -0.29422E-03   -0.33330E-01  4880   0.935E-01    0.198E-01
RMM:   2    -0.253653947667E+03    0.15522E-03   -0.52833E-03  4374   0.126E-01    0.221E-02
RMM:   3    -0.253653962797E+03   -0.15130E-04   -0.23756E-04  2861   0.438E-02
  61 F= -.25365396E+03 E0= -.25366181E+03  d E =0.313893E-01
       N       E                     dE             d eps       ncg     rms          rms(c)
DAV:   1    -0.253654372583E+03   -0.42492E-03   -0.16562E-01  4904   0.695E-01    0.131E-01
RMM:   2    -0.253654367053E+03    0.55294E-05   -0.24416E-03  4132   0.877E-02    0.658E-02
RMM:   3    -0.253654380278E+03   -0.13225E-04   -0.39486E-04  3027   0.399E-02
  62 F= -.25365438E+03 E0= -.25366223E+03  d E =0.313953E-01
       N       E                     dE             d eps       ncg     rms          rms(c)
DAV:   1    -0.253653759476E+03    0.60758E-03   -0.33581E-01  4824   0.921E-01    0.183E-01
RMM:   2    -0.253653763611E+03   -0.41348E-05   -0.40076E-03  4367   0.109E-01    0.294E-02
RMM:   3    -0.253653772412E+03   -0.88014E-05   -0.18139E-04  2781   0.365E-02
  63 F= -.25365377E+03 E0= -.25366162E+03  d E =0.313889E-01
       N       E                     dE             d eps       ncg     rms          rms(c)
DAV:   1    -0.253653333662E+03    0.42995E-03   -0.17800E-01  4904   0.673E-01    0.187E-01
RMM:   2    -0.253652881540E+03    0.45212E-03   -0.43639E-03  4425   0.113E-01    0.821E-02
RMM:   3    -0.253652884665E+03   -0.31254E-05   -0.78455E-04  3478   0.528E-02
  64 F= -.25365288E+03 E0= -.25366072E+03  d E =0.313499E-01
       N       E                     dE             d eps       ncg     rms          rms(c)
DAV:   1    -0.253653073670E+03   -0.19213E-03   -0.35728E-01  4888   0.963E-01    0.260E-01
RMM:   2    -0.253652150614E+03    0.92306E-03   -0.95405E-03  4610   0.157E-01    0.277E-02
RMM:   3    -0.253652204861E+03   -0.54247E-04   -0.60512E-04  3275   0.533E-02
  65 F= -.25365220E+03 E0= -.25366005E+03  d E =0.313665E-01
       N       E                     dE             d eps       ncg     rms          rms(c)
DAV:   1    -0.253654658268E+03   -0.25077E-02   -0.17905E-01  4912   0.673E-01    0.190E-01
RMM:   2    -0.253654197160E+03    0.46111E-03   -0.45894E-03  4339   0.114E-01    0.694E-02
RMM:   3    -0.253654197813E+03   -0.65285E-06   -0.37760E-04  3005   0.436E-02
  66 F= -.25365420E+03 E0= -.25366202E+03  d E =0.312956E-01
       N       E                     dE             d eps       ncg     rms          rms(c)
DAV:   1    -0.253654327449E+03   -0.13029E-03   -0.32654E-01  4808   0.924E-01    0.189E-01
RMM:   2    -0.253654382483E+03   -0.55034E-04   -0.41345E-03  4329   0.115E-01    0.210E-02
RMM:   3    -0.253654400467E+03   -0.17984E-04   -0.19104E-04  2754   0.379E-02
  67 F= -.25365440E+03 E0= -.25366226E+03  d E =0.314332E-01
       N       E                     dE             d eps       ncg     rms          rms(c)
DAV:   1    -0.253652871098E+03    0.15114E-02   -0.16906E-01  4888   0.700E-01    0.147E-01
RMM:   2    -0.253653005032E+03   -0.13393E-03   -0.33084E-03  4219   0.101E-01    0.831E-02
RMM:   3    -0.253652925141E+03    0.79890E-04   -0.48821E-04  3101   0.393E-02
  68 F= -.25365293E+03 E0= -.25366075E+03  d E =0.313181E-01
       N       E                     dE             d eps       ncg     rms          rms(c)
DAV:   1    -0.253653599375E+03   -0.59434E-03   -0.35258E-01  4800   0.923E-01    0.232E-01
RMM:   2    -0.253653126194E+03    0.47318E-03   -0.79627E-03  4459   0.143E-01    0.294E-02
RMM:   3    -0.253653150972E+03   -0.24778E-04   -0.36831E-04  2970   0.493E-02
  69 F= -.25365315E+03 E0= -.25366099E+03  d E =0.313459E-01
       N       E                     dE             d eps       ncg     rms          rms(c)
DAV:   1    -0.253654617097E+03   -0.14909E-02   -0.18109E-01  4904   0.669E-01    0.184E-01
RMM:   2    -0.253654222272E+03    0.39483E-03   -0.46495E-03  4200   0.111E-01    0.677E-02
RMM:   3    -0.253654252526E+03   -0.30254E-04   -0.42768E-04  3057   0.429E-02
  70 F= -.25365425E+03 E0= -.25366210E+03  d E =0.313717E-01
       N       E                     dE             d eps       ncg     rms          rms(c)
DAV:   1    -0.253653761574E+03    0.46070E-03   -0.33863E-01  4800   0.905E-01    0.197E-01
RMM:   2    -0.253653645369E+03    0.11621E-03   -0.53447E-03  4265   0.118E-01    0.272E-02
RMM:   3    -0.253653663464E+03   -0.18095E-04   -0.28775E-04  2882   0.419E-02
  71 F= -.25365366E+03 E0= -.25366150E+03  d E =0.313450E-01
       N       E                     dE             d eps       ncg     rms          rms(c)
DAV:   1    -0.253653781582E+03   -0.13621E-03   -0.17443E-01  4896   0.656E-01    0.165E-01
RMM:   2    -0.253653556928E+03    0.22465E-03   -0.34440E-03  3969   0.945E-02    0.677E-02
RMM:   3    -0.253653557005E+03   -0.77394E-07   -0.32209E-04  2899   0.388E-02
  72 F= -.25365356E+03 E0= -.25366138E+03  d E =0.313117E-01
       N       E                     dE             d eps       ncg     rms          rms(c)
DAV:   1    -0.253654088263E+03   -0.53134E-03   -0.33853E-01  4816   0.903E-01    0.199E-01
RMM:   2    -0.253653954446E+03    0.13382E-03   -0.51494E-03  4187   0.117E-01    0.204E-02
RMM:   3    -0.253653965605E+03   -0.11159E-04   -0.24949E-04  2829   0.408E-02
  73 F= -.25365397E+03 E0= -.25366181E+03  d E =0.313581E-01
       N       E                     dE             d eps       ncg     rms          rms(c)
DAV:   1    -0.253652909904E+03    0.10445E-02   -0.16838E-01  4864   0.666E-01    0.145E-01
RMM:   2    -0.253653033547E+03   -0.12364E-03   -0.29446E-03  3894   0.903E-02    0.788E-02
RMM:   3    -0.253653014807E+03    0.18741E-04   -0.41923E-04  3097   0.434E-02
  74 F= -.25365301E+03 E0= -.25366092E+03  d E =0.316174E-01
       N       E                     dE             d eps       ncg     rms          rms(c)
DAV:   1    -0.253653347832E+03   -0.31429E-03   -0.35823E-01  4840   0.879E-01    0.234E-01
RMM:   2    -0.253652972574E+03    0.37526E-03   -0.80962E-03  4356   0.135E-01    0.252E-02
RMM:   3    -0.253652966627E+03    0.59474E-05   -0.33154E-04  2974   0.458E-02
  75 F= -.25365297E+03 E0= -.25366081E+03  d E =0.313923E-01
       N       E                     dE             d eps       ncg     rms          rms(c)
DAV:   1    -0.253652961867E+03    0.10707E-04   -0.16705E-01  4960   0.597E-01    0.118E-01
RMM:   2    -0.253653125042E+03   -0.16317E-03   -0.14990E-03  3479   0.628E-02    0.715E-02
RMM:   3    -0.253653090840E+03    0.34202E-04   -0.25244E-04  2843   0.320E-02
  76 F= -.25365309E+03 E0= -.25366096E+03  d E =0.314928E-01
       N       E                     dE             d eps       ncg     rms          rms(c)
DAV:   1    -0.253653855052E+03   -0.73001E-03   -0.34942E-01  4808   0.867E-01    0.230E-01
RMM:   2    -0.253653457849E+03    0.39720E-03   -0.76154E-03  4296   0.130E-01    0.239E-02
RMM:   3    -0.253653448311E+03    0.95383E-05   -0.32761E-04  2933   0.452E-02
  77 F= -.25365345E+03 E0= -.25366129E+03  d E =0.313498E-01
       N       E                     dE             d eps       ncg     rms          rms(c)
DAV:   1    -0.253654234114E+03   -0.77626E-03   -0.16795E-01  4872   0.602E-01    0.129E-01
RMM:   2    -0.253654255038E+03   -0.20925E-04   -0.18310E-03  3587   0.710E-02    0.583E-02
RMM:   3    -0.253654268063E+03   -0.13025E-04   -0.19802E-04  2775   0.315E-02
  78 F= -.25365427E+03 E0= -.25366211E+03  d E =0.313528E-01
       N       E                     dE             d eps       ncg     rms          rms(c)
DAV:   1    -0.253654419069E+03   -0.16403E-03   -0.33208E-01  4800   0.847E-01    0.165E-01
RMM:   2    -0.253654674835E+03   -0.25577E-03   -0.28397E-03  3808   0.885E-02    0.200E-02
RMM:   3    -0.253654676721E+03   -0.18861E-05   -0.14789E-04  2719   0.315E-02
  79 F= -.25365468E+03 E0= -.25366252E+03  d E =0.313904E-01
       N       E                     dE             d eps       ncg     rms          rms(c)
DAV:   1    -0.253652727893E+03    0.19469E-02   -0.17126E-01  4920   0.670E-01    0.144E-01
RMM:   2    -0.253652706802E+03    0.21091E-04   -0.29660E-03  3996   0.925E-02    0.847E-02
RMM:   3    -0.253652628278E+03    0.78524E-04   -0.60701E-04  3257   0.415E-02
  80 F= -.25365263E+03 E0= -.25366045E+03  d E =0.312859E-01
       N       E                     dE             d eps       ncg     rms          rms(c)
DAV:   1    -0.253653521847E+03   -0.81504E-03   -0.35913E-01  4848   0.919E-01    0.242E-01
RMM:   2    -0.253653011508E+03    0.51034E-03   -0.87624E-03  4477   0.146E-01    0.335E-02
RMM:   3    -0.253653023090E+03   -0.11582E-04   -0.52280E-04  3217   0.468E-02
  81 F= -.25365302E+03 E0= -.25366086E+03  d E =0.313455E-01
       N       E                     dE             d eps       ncg     rms          rms(c)
DAV:   1    -0.253654120216E+03   -0.11087E-02   -0.17853E-01  5032   0.644E-01    0.176E-01
RMM:   2    -0.253653782347E+03    0.33787E-03   -0.41426E-03  3994   0.983E-02    0.626E-02
RMM:   3    -0.253653800310E+03   -0.17963E-04   -0.37204E-04  3045   0.381E-02
  82 F= -.25365380E+03 E0= -.25366164E+03  d E =0.313461E-01
       N       E                     dE             d eps       ncg     rms          rms(c)
DAV:   1    -0.253654542007E+03   -0.75966E-03   -0.33793E-01  4856   0.885E-01    0.178E-01
RMM:   2    -0.253654596714E+03   -0.54707E-04   -0.37161E-03  3903   0.969E-02    0.201E-02
RMM:   3    -0.253654624575E+03   -0.27861E-04   -0.16944E-04  2785   0.303E-02
  83 F= -.25365462E+03 E0= -.25366247E+03  d E =0.313697E-01
       N       E                     dE             d eps       ncg     rms          rms(c)
DAV:   1    -0.253653812032E+03    0.78468E-03   -0.17373E-01  5008   0.635E-01    0.160E-01
RMM:   2    -0.253653640106E+03    0.17193E-03   -0.29367E-03  3743   0.826E-02    0.677E-02
RMM:   3    -0.253653611914E+03    0.28192E-04   -0.20606E-04  2835   0.338E-02
  84 F= -.25365361E+03 E0= -.25366145E+03  d E =0.313375E-01
       N       E                     dE             d eps       ncg     rms          rms(c)
DAV:   1    -0.253653697194E+03   -0.57089E-04   -0.35086E-01  4880   0.904E-01    0.222E-01
RMM:   2    -0.253653469278E+03    0.22792E-03   -0.63450E-03  4155   0.123E-01    0.219E-02
RMM:   3    -0.253653473806E+03   -0.45283E-05   -0.30356E-04  2940   0.402E-02
  85 F= -.25365347E+03 E0= -.25366132E+03  d E =0.313864E-01
       N       E                     dE             d eps       ncg     rms          rms(c)
DAV:   1    -0.253653991291E+03   -0.52201E-03   -0.16800E-01  5000   0.671E-01    0.138E-01
RMM:   2    -0.253654119220E+03   -0.12793E-03   -0.23932E-03  3745   0.786E-02    0.675E-02
RMM:   3    -0.253654100929E+03    0.18291E-04   -0.21378E-04  2832   0.335E-02
  86 F= -.25365410E+03 E0= -.25366196E+03  d E =0.314251E-01
       N       E                     dE             d eps       ncg     rms          rms(c)
DAV:   1    -0.253653834023E+03    0.28520E-03   -0.33736E-01  4912   0.904E-01    0.188E-01
RMM:   2    -0.253653924398E+03   -0.90374E-04   -0.42565E-03  3977   0.102E-01    0.233E-02
RMM:   3    -0.253653920960E+03    0.34381E-05   -0.20339E-04  2815   0.337E-02
  87 F= -.25365392E+03 E0= -.25366176E+03  d E =0.313711E-01
       N       E                     dE             d eps       ncg     rms          rms(c)
DAV:   1    -0.253652993093E+03    0.93131E-03   -0.18072E-01  4992   0.670E-01    0.184E-01
RMM:   2    -0.253652787427E+03    0.20567E-03   -0.47314E-03  4074   0.110E-01    0.821E-02
RMM:   3    -0.253652722855E+03    0.64572E-04   -0.74204E-04  3370   0.446E-02
  88 F= -.25365272E+03 E0= -.25366056E+03  d E =0.313576E-01
       N       E                     dE             d eps       ncg     rms          rms(c)
DAV:   1    -0.253653467078E+03   -0.67965E-03   -0.35658E-01  4992   0.933E-01    0.251E-01
RMM:   2    -0.253652716183E+03    0.75090E-03   -0.98727E-03  4374   0.152E-01    0.305E-02
RMM:   3    -0.253652761918E+03   -0.45735E-04   -0.58977E-04  3240   0.508E-02
  89 F= -.25365276E+03 E0= -.25366059E+03  d E =0.313184E-01
       N       E                     dE             d eps       ncg     rms          rms(c)
DAV:   1    -0.253653494433E+03   -0.77825E-03   -0.16608E-01  4992   0.641E-01    0.124E-01
RMM:   2    -0.253653599516E+03   -0.10508E-03   -0.18303E-03  3732   0.709E-02    0.607E-02
RMM:   3    -0.253653584872E+03    0.14644E-04   -0.13469E-04  2759   0.293E-02
  90 F= -.25365358E+03 E0= -.25366141E+03  d E =0.312879E-01
       N       E                     dE             d eps       ncg     rms          rms(c)
DAV:   1    -0.253654385506E+03   -0.78599E-03   -0.34294E-01  4928   0.910E-01    0.195E-01
RMM:   2    -0.253654434733E+03   -0.49227E-04   -0.43925E-03  4025   0.104E-01    0.264E-02
RMM:   3    -0.253654425024E+03    0.97087E-05   -0.26853E-04  2873   0.359E-02
  91 F= -.25365443E+03 E0= -.25366228E+03  d E =0.314119E-01
       N       E                     dE             d eps       ncg     rms          rms(c)
DAV:   1    -0.253649815321E+03    0.46194E-02   -0.63142E-01  4808   0.145E+00    0.159E-01
RMM:   2    -0.253650581128E+03   -0.76581E-03   -0.99788E-03  4537   0.167E-01    0.119E-01
RMM:   3    -0.253650437008E+03    0.14412E-03   -0.51806E-04  3107   0.536E-02    0.848E-02
RMM:   4    -0.253650301983E+03    0.13502E-03   -0.69582E-04  3307   0.433E-02    0.247E-02
RMM:   5    -0.253650295951E+03    0.60324E-05   -0.62507E-05  2561   0.260E-02
  92 F= -.25365030E+03 E0= -.25365813E+03  d E =0.313241E-01
       N       E                     dE             d eps       ncg     rms          rms(c)
DAV:   1    -0.253648778407E+03    0.15236E-02   -0.21943E+00  4800   0.267E+00    0.263E-01
RMM:   2    -0.253649802731E+03   -0.10243E-02   -0.30000E-02  4760   0.292E-01    0.292E-02
RMM:   3    -0.253649911598E+03   -0.10887E-03   -0.12710E-03  3604   0.891E-02    0.172E-02
RMM:   4    -0.253649931166E+03   -0.19569E-04   -0.27969E-04  2892   0.314E-02
  93 F= -.25364993E+03 E0= -.25365778E+03  d E =0.313776E-01
       N       E                     dE             d eps       ncg     rms          rms(c)
DAV:   1    -0.253648742192E+03    0.11694E-02   -0.10967E+00  4808   0.186E+00    0.188E-01
RMM:   2    -0.253649553224E+03   -0.81103E-03   -0.14703E-02  4677   0.202E-01    0.126E-01
RMM:   3    -0.253649413988E+03    0.13924E-03   -0.75512E-04  3247   0.631E-02    0.803E-02
RMM:   4    -0.253649265184E+03    0.14880E-03   -0.61731E-04  3241   0.420E-02    0.256E-02
RMM:   5    -0.253649262488E+03    0.26955E-05   -0.74531E-05  2588   0.251E-02
  94 F= -.25364926E+03 E0= -.25365709E+03  d E =0.313204E-01
       N       E                     dE             d eps       ncg     rms          rms(c)
DAV:   1    -0.253648678881E+03    0.58630E-03   -0.22307E+00  4800   0.261E+00    0.270E-01
RMM:   2    -0.253649542860E+03   -0.86398E-03   -0.27554E-02  4734   0.276E-01    0.281E-02
RMM:   3    -0.253649630315E+03   -0.87455E-04   -0.10290E-03  3390   0.775E-02    0.209E-02
RMM:   4    -0.253649640522E+03   -0.10206E-04   -0.20782E-04  2793   0.305E-02
  95 F= -.25364964E+03 E0= -.25365749E+03  d E =0.313817E-01
       N       E                     dE             d eps       ncg     rms          rms(c)
DAV:   1    -0.253649587831E+03    0.42485E-04   -0.10991E+00  4800   0.187E+00    0.195E-01
RMM:   2    -0.253650312891E+03   -0.72506E-03   -0.13442E-02  4653   0.200E-01    0.134E-01
RMM:   3    -0.253650110645E+03    0.20225E-03   -0.83305E-04  3411   0.633E-02    0.857E-02
RMM:   4    -0.253649930838E+03    0.17981E-03   -0.58262E-04  3210   0.417E-02    0.402E-02
RMM:   5    -0.253649910567E+03    0.20271E-04   -0.11660E-04  2678   0.280E-02
  96 F= -.25364991E+03 E0= -.25365774E+03  d E =0.313335E-01
       N       E                     dE             d eps       ncg     rms          rms(c)
DAV:   1    -0.253649526412E+03    0.40443E-03   -0.22011E+00  4800   0.265E+00    0.275E-01
RMM:   2    -0.253650077831E+03   -0.55142E-03   -0.26630E-02  4754   0.275E-01    0.292E-02
RMM:   3    -0.253650163764E+03   -0.85933E-04   -0.10961E-03  3573   0.831E-02    0.226E-02
RMM:   4    -0.253650172680E+03   -0.89158E-05   -0.20708E-04  2832   0.304E-02
  97 F= -.25365017E+03 E0= -.25365801E+03  d E =0.313675E-01
       N       E                     dE             d eps       ncg     rms          rms(c)
DAV:   1    -0.253654586643E+03   -0.44229E-02   -0.64777E-01  4800   0.144E+00    0.168E-01
RMM:   2    -0.253654699923E+03   -0.11328E-03   -0.79374E-03  4495   0.150E-01    0.605E-02
RMM:   3    -0.253654707376E+03   -0.74529E-05   -0.33860E-04  2969   0.462E-02
  98 F= -.25365471E+03 E0= -.25366255E+03  d E =0.313819E-01
       N       E                     dE             d eps       ncg     rms          rms(c)
DAV:   1    -0.253654001848E+03    0.69808E-03   -0.32693E-01  4824   0.896E-01    0.161E-01
RMM:   2    -0.253654287641E+03   -0.28579E-03   -0.34339E-03  4093   0.954E-02    0.318E-02
RMM:   3    -0.253654272520E+03    0.15121E-04   -0.17271E-04  2741   0.348E-02
  99 F= -.25365427E+03 E0= -.25366211E+03  d E =0.313488E-01
       N       E                     dE             d eps       ncg     rms          rms(c)
DAV:   1    -0.253654033926E+03    0.25371E-03   -0.16268E-01  4848   0.635E-01    0.114E-01
RMM:   2    -0.253654196774E+03   -0.16285E-03   -0.13261E-03  3530   0.619E-02    0.678E-02
RMM:   3    -0.253654178820E+03    0.17955E-04   -0.14761E-04  2730   0.300E-02
 100 F= -.25365418E+03 E0= -.25366203E+03  d E =0.314003E-01
       N       E                     dE             d eps       ncg     rms          rms(c)
DAV:   1    -0.253654479169E+03   -0.28239E-03   -0.32943E-01  4816   0.902E-01    0.170E-01
RMM:   2    -0.253654719011E+03   -0.23984E-03   -0.31840E-03  4075   0.958E-02    0.241E-02
RMM:   3    -0.253654704923E+03    0.14088E-04   -0.14155E-04  2716   0.310E-02
 101 F= -.25365470E+03 E0= -.25366254E+03  d E =0.313519E-01
       N       E                     dE             d eps       ncg     rms          rms(c)
DAV:   1    -0.253652272781E+03    0.24462E-02   -0.17683E-01  4912   0.659E-01    0.178E-01
RMM:   2    -0.253652110183E+03    0.16260E-03   -0.44368E-03  4161   0.107E-01    0.911E-02
RMM:   3    -0.253652000367E+03    0.10982E-03   -0.46171E-04  3037   0.387E-02    0.456E-02
RMM:   4    -0.253652005192E+03   -0.48252E-05   -0.12994E-04  2727   0.291E-02
 102 F= -.25365201E+03 E0= -.25365986E+03  d E =0.314031E-01
       N       E                     dE             d eps       ncg     rms          rms(c)
DAV:   1    -0.253652695269E+03   -0.69490E-03   -0.36716E-01  4896   0.952E-01    0.268E-01
RMM:   2    -0.253652004342E+03    0.69093E-03   -0.11095E-02  4550   0.159E-01    0.326E-02
RMM:   3    -0.253652016682E+03   -0.12340E-04   -0.46176E-04  3056   0.480E-02
 103 F= -.25365202E+03 E0= -.25365985E+03  d E =0.313512E-01
       N       E                     dE             d eps       ncg     rms          rms(c)
DAV:   1    -0.253653579965E+03   -0.15756E-02   -0.18264E-01  4920   0.694E-01    0.182E-01
RMM:   2    -0.253653176220E+03    0.40375E-03   -0.52665E-03  4248   0.122E-01    0.891E-02
RMM:   3    -0.253653107532E+03    0.68688E-04   -0.50912E-04  3100   0.413E-02
 104 F= -.25365311E+03 E0= -.25366096E+03  d E =0.314022E-01
       N       E                     dE             d eps       ncg     rms          rms(c)
DAV:   1    -0.253653470721E+03   -0.29450E-03   -0.35301E-01  4872   0.896E-01    0.225E-01
RMM:   2    -0.253653187410E+03    0.28331E-03   -0.72193E-03  4352   0.135E-01    0.298E-02
RMM:   3    -0.253653200580E+03   -0.13170E-04   -0.34129E-04  2938   0.425E-02
 105 F= -.25365320E+03 E0= -.25366105E+03  d E =0.313853E-01
       N       E                     dE             d eps       ncg     rms          rms(c)
DAV:   1    -0.253652773123E+03    0.41429E-03   -0.16546E-01  4856   0.608E-01    0.115E-01
RMM:   2    -0.253652919289E+03   -0.14617E-03   -0.15695E-03  3513   0.635E-02    0.751E-02
RMM:   3    -0.253652909751E+03    0.95380E-05   -0.31069E-04  2922   0.345E-02
 106 F= -.25365291E+03 E0= -.25366075E+03  d E =0.313517E-01
       N       E                     dE             d eps       ncg     rms          rms(c)
DAV:   1    -0.253653608150E+03   -0.68886E-03   -0.34968E-01  4872   0.885E-01    0.230E-01
RMM:   2    -0.253653150854E+03    0.45730E-03   -0.74068E-03  4298   0.132E-01    0.267E-02
RMM:   3    -0.253653175669E+03   -0.24815E-04   -0.37221E-04  2952   0.441E-02
 107 F= -.25365318E+03 E0= -.25366102E+03  d E =0.313807E-01
       N       E                     dE             d eps       ncg     rms          rms(c)
DAV:   1    -0.253654275117E+03   -0.11243E-02   -0.16993E-01  4896   0.622E-01    0.143E-01
RMM:   2    -0.253654195345E+03    0.79771E-04   -0.27482E-03  3725   0.799E-02    0.624E-02
RMM:   3    -0.253654222095E+03   -0.26749E-04   -0.35236E-04  2948   0.369E-02
 108 F= -.25365422E+03 E0= -.25366205E+03  d E =0.313150E-01
       N       E                     dE             d eps       ncg     rms          rms(c)
DAV:   1    -0.253654672151E+03   -0.47681E-03   -0.32656E-01  4800   0.861E-01    0.159E-01
RMM:   2    -0.253654937457E+03   -0.26531E-03   -0.29584E-03  3816   0.872E-02    0.220E-02
RMM:   3    -0.253654944395E+03   -0.69371E-05   -0.13329E-04  2683   0.304E-02
 109 F= -.25365494E+03 E0= -.25366279E+03  d E =0.313838E-01
       N       E                     dE             d eps       ncg     rms          rms(c)
DAV:   1    -0.253654205304E+03    0.73215E-03   -0.16624E-01  4832   0.639E-01    0.122E-01
RMM:   2    -0.253654280639E+03   -0.75334E-04   -0.16815E-03  3480   0.659E-02    0.623E-02
RMM:   3    -0.253654275839E+03    0.47994E-05   -0.11236E-04  2707   0.273E-02
 110 F= -.25365428E+03 E0= -.25366212E+03  d E =0.313573E-01
       N       E                     dE             d eps       ncg     rms          rms(c)
DAV:   1    -0.253654053567E+03    0.22707E-03   -0.33266E-01  4808   0.835E-01    0.178E-01
RMM:   2    -0.253654144458E+03   -0.90891E-04   -0.37452E-03  3988   0.972E-02    0.206E-02
RMM:   3    -0.253654161254E+03   -0.16796E-04   -0.18988E-04  2742   0.342E-02
 111 F= -.25365416E+03 E0= -.25366201E+03  d E =0.313946E-01
       N       E                     dE             d eps       ncg     rms          rms(c)
DAV:   1    -0.253653131848E+03    0.10126E-02   -0.17559E-01  4896   0.614E-01    0.179E-01
RMM:   2    -0.253652879042E+03    0.25281E-03   -0.42234E-03  4093   0.104E-01    0.912E-02
RMM:   3    -0.253652819674E+03    0.59368E-04   -0.34192E-04  2918   0.390E-02
 112 F= -.25365282E+03 E0= -.25366070E+03  d E =0.315266E-01
       N       E                     dE             d eps       ncg     rms          rms(c)
DAV:   1    -0.253653204386E+03   -0.32534E-03   -0.35732E-01  4944   0.876E-01    0.235E-01
RMM:   2    -0.253652699794E+03    0.50459E-03   -0.90534E-03  4544   0.149E-01    0.438E-02
RMM:   3    -0.253652734620E+03   -0.34826E-04   -0.37283E-04  2934   0.463E-02
 113 F= -.25365273E+03 E0= -.25366057E+03  d E =0.313550E-01
       N       E                     dE             d eps       ncg     rms          rms(c)
DAV:   1    -0.253653742290E+03   -0.10425E-02   -0.16544E-01  4904   0.587E-01    0.119E-01
RMM:   2    -0.253653862154E+03   -0.11986E-03   -0.18223E-03  3608   0.718E-02    0.708E-02
RMM:   3    -0.253653848259E+03    0.13895E-04   -0.27703E-04  2892   0.355E-02
 114 F= -.25365385E+03 E0= -.25366170E+03  d E =0.313891E-01
       N       E                     dE             d eps       ncg     rms          rms(c)
DAV:   1    -0.253653959622E+03   -0.97468E-04   -0.32776E-01  4960   0.831E-01    0.179E-01
RMM:   2    -0.253654103016E+03   -0.14339E-03   -0.45392E-03  4116   0.109E-01    0.426E-02
RMM:   3    -0.253654093276E+03    0.97394E-05   -0.23164E-04  2780   0.368E-02
 115 F= -.25365409E+03 E0= -.25366192E+03  d E =0.313210E-01
