       N       E                     dE             d eps       ncg     rms          rms(c)
DAV:   1     0.360546848963E+04    0.36055E+04   -0.14420E+05  4784   0.118E+03
DAV:   2     0.194683946925E+03   -0.34108E+04   -0.31426E+04  4952   0.454E+02
DAV:   3    -0.236179729193E+03   -0.43086E+03   -0.40071E+03  6456   0.132E+02
DAV:   4    -0.270097448375E+03   -0.33918E+02   -0.30702E+02  6936   0.378E+01
DAV:   5    -0.271225784252E+03   -0.11283E+01   -0.11005E+01  6480   0.598E+00    0.283E+01
RMM:   6    -0.262881887693E+03    0.83439E+01   -0.15955E+01  5331   0.738E+00    0.236E+01
RMM:   7    -0.284413586650E+03   -0.21532E+02   -0.22145E+01  5312   0.787E+00    0.332E+01
RMM:   8    -0.261782611659E+03    0.22631E+02   -0.14124E+01  5227   0.681E+00    0.235E+01
RMM:   9    -0.249754470933E+03    0.12028E+02   -0.12414E+01  4816   0.905E+00    0.130E+01
RMM:  10    -0.247429341707E+03    0.23251E+01   -0.35451E+00  5508   0.374E+00    0.789E+00
RMM:  11    -0.246607393261E+03    0.82195E+00   -0.22409E+00  4949   0.339E+00    0.360E+00
RMM:  12    -0.246548869232E+03    0.58524E-01   -0.77052E-01  5205   0.194E+00    0.262E+00
RMM:  13    -0.246538319955E+03    0.10549E-01   -0.17693E-01  5748   0.818E-01    0.191E+00
RMM:  14    -0.246548107004E+03   -0.97870E-02   -0.11537E-01  4774   0.808E-01    0.108E+00
RMM:  15    -0.246532999553E+03    0.15107E-01   -0.57532E-02  5238   0.468E-01    0.765E-01
RMM:  16    -0.246529941216E+03    0.30583E-02   -0.17819E-02  5173   0.253E-01    0.515E-01
RMM:  17    -0.246537868025E+03   -0.79268E-02   -0.16429E-02  4990   0.242E-01    0.429E-01
RMM:  18    -0.246537702946E+03    0.16508E-03   -0.76816E-03  4817   0.187E-01    0.229E-01
RMM:  19    -0.246537780991E+03   -0.78045E-04   -0.24293E-03  4937   0.107E-01    0.165E-01
RMM:  20    -0.246537582233E+03    0.19876E-03   -0.20060E-03  4775   0.957E-02    0.114E-01
RMM:  21    -0.246537300434E+03    0.28180E-03   -0.12036E-03  4600   0.732E-02    0.669E-02
RMM:  22    -0.246537090855E+03    0.20958E-03   -0.34526E-04  3164   0.358E-02    0.405E-02
RMM:  23    -0.246536995749E+03    0.95106E-04   -0.41331E-04  3284   0.405E-02
   1 F= -.24653700E+03 E0= -.24653298E+03  d E =-.160680E-01
       N       E                     dE             d eps       ncg     rms          rms(c)
DAV:   1    -0.246531988352E+03    0.51025E-02   -0.53683E-01  4986   0.144E+00    0.120E-01
RMM:   2    -0.246532829674E+03   -0.84132E-03   -0.91932E-03  4622   0.189E-01    0.111E-01
RMM:   3    -0.246532782491E+03    0.47183E-04   -0.61817E-04  3321   0.639E-02
   2 F= -.24653278E+03 E0= -.24652874E+03  d E =-.161603E-01
       N       E                     dE             d eps       ncg     rms          rms(c)
DAV:   1    -0.246531290483E+03    0.15392E-02   -0.21725E+00  4880   0.288E+00    0.236E-01
RMM:   2    -0.246533195023E+03   -0.19045E-02   -0.36140E-02  4761   0.375E-01    0.518E-02
RMM:   3    -0.246533431825E+03   -0.23680E-03   -0.21796E-03  4301   0.129E-01    0.326E-02
RMM:   4    -0.246533539343E+03   -0.10752E-03   -0.56774E-04  3351   0.436E-02    0.247E-02
RMM:   5    -0.246533632515E+03   -0.93172E-04   -0.12737E-04  2706   0.283E-02
   3 F= -.24653363E+03 E0= -.24652962E+03  d E =-.160343E-01
       N       E                     dE             d eps       ncg     rms          rms(c)
DAV:   1    -0.246531202115E+03    0.23372E-02   -0.10724E+00  4856   0.205E+00    0.163E-01
RMM:   2    -0.246532610720E+03   -0.14086E-02   -0.17570E-02  4716   0.255E-01    0.117E-01
RMM:   3    -0.246532579145E+03    0.31575E-04   -0.10747E-03  3666   0.931E-02    0.931E-02
RMM:   4    -0.246532578675E+03    0.46957E-06   -0.94364E-04  3774   0.519E-02
   4 F= -.24653258E+03 E0= -.24652859E+03  d E =-.159499E-01
       N       E                     dE             d eps       ncg     rms          rms(c)
DAV:   1    -0.246529485759E+03    0.30934E-02   -0.21792E+00  4808   0.288E+00    0.240E-01
RMM:   2    -0.246531165845E+03   -0.16801E-02   -0.30541E-02  4745   0.336E-01    0.450E-02
RMM:   3    -0.246531236089E+03   -0.70244E-04   -0.16394E-03  4059   0.111E-01    0.330E-02
RMM:   4    -0.246531286395E+03   -0.50306E-04   -0.37643E-04  3016   0.361E-02
   5 F= -.24653129E+03 E0= -.24652728E+03  d E =-.160374E-01
       N       E                     dE             d eps       ncg     rms          rms(c)
DAV:   1    -0.246534825728E+03   -0.35896E-02   -0.10562E+00  4784   0.206E+00    0.176E-01
RMM:   2    -0.246535862509E+03   -0.10368E-02   -0.12546E-02  4702   0.248E-01    0.102E-01
RMM:   3    -0.246535581119E+03    0.28139E-03   -0.14918E-03  4306   0.791E-02    0.567E-02
RMM:   4    -0.246535563582E+03    0.17538E-04   -0.23004E-04  2874   0.335E-02
   6 F= -.24653556E+03 E0= -.24653154E+03  d E =-.161116E-01
       N       E                     dE             d eps       ncg     rms          rms(c)
DAV:   1    -0.246532377882E+03    0.32032E-02   -0.20241E+00  4772   0.291E+00    0.244E-01
RMM:   2    -0.246533932851E+03   -0.15550E-02   -0.25874E-02  4754   0.384E-01    0.368E-02
RMM:   3    -0.246533946137E+03   -0.13286E-04   -0.21806E-03  4783   0.106E-01    0.199E-02
RMM:   4    -0.246533973650E+03   -0.27513E-04   -0.22106E-04  2915   0.314E-02
   7 F= -.24653397E+03 E0= -.24652998E+03  d E =-.159860E-01
       N       E                     dE             d eps       ncg     rms          rms(c)
DAV:   1    -0.246530330322E+03    0.36158E-02   -0.10925E+00  4784   0.208E+00    0.171E-01
RMM:   2    -0.246531931071E+03   -0.16007E-02   -0.19127E-02  4705   0.272E-01    0.125E-01
RMM:   3    -0.246531987889E+03   -0.56818E-04   -0.97753E-04  3636   0.826E-02
   8 F= -.24653199E+03 E0= -.24652799E+03  d E =-.159941E-01
       N       E                     dE             d eps       ncg     rms          rms(c)
DAV:   1    -0.246529233208E+03    0.26979E-02   -0.22527E+00  4772   0.274E+00    0.218E-01
RMM:   2    -0.246531038920E+03   -0.18057E-02   -0.33798E-02  4768   0.316E-01    0.106E-01
RMM:   3    -0.246531232861E+03   -0.19394E-03   -0.22567E-03  4284   0.100E-01    0.589E-02
RMM:   4    -0.246531346251E+03   -0.11339E-03   -0.41867E-04  3124   0.503E-02    0.270E-02
RMM:   5    -0.246531375518E+03   -0.29267E-04   -0.10060E-04  2630   0.268E-02
   9 F= -.24653138E+03 E0= -.24652737E+03  d E =-.160288E-01
       N       E                     dE             d eps       ncg     rms          rms(c)
DAV:   1    -0.246531878162E+03   -0.53191E-03   -0.10946E+00  4808   0.194E+00    0.178E-01
RMM:   2    -0.246533005762E+03   -0.11276E-02   -0.17252E-02  4662   0.229E-01    0.110E-01
RMM:   3    -0.246532892389E+03    0.11337E-03   -0.96427E-04  3514   0.764E-02    0.723E-02
RMM:   4    -0.246532785466E+03    0.10692E-03   -0.61423E-04  3240   0.437E-02    0.232E-02
RMM:   5    -0.246532832202E+03   -0.46736E-04   -0.10783E-04  2667   0.334E-02
  10 F= -.24653283E+03 E0= -.24652882E+03  d E =-.160486E-01
       N       E                     dE             d eps       ncg     rms          rms(c)
DAV:   1    -0.246531414470E+03    0.13710E-02   -0.21537E+00  4784   0.269E+00    0.249E-01
RMM:   2    -0.246533107831E+03   -0.16934E-02   -0.36935E-02  4730   0.329E-01    0.269E-02
RMM:   3    -0.246533325712E+03   -0.21788E-03   -0.18155E-03  3928   0.116E-01    0.169E-02
RMM:   4    -0.246533398439E+03   -0.72727E-04   -0.37586E-04  3020   0.356E-02
  11 F= -.24653340E+03 E0= -.24652939E+03  d E =-.160156E-01
       N       E                     dE             d eps       ncg     rms          rms(c)
DAV:   1    -0.246532222814E+03    0.11029E-02   -0.10722E+00  4792   0.189E+00    0.188E-01
RMM:   2    -0.246532938239E+03   -0.71543E-03   -0.16453E-02  4680   0.224E-01    0.125E-01
RMM:   3    -0.246532722104E+03    0.21613E-03   -0.99875E-04  3531   0.745E-02    0.763E-02
RMM:   4    -0.246532736700E+03   -0.14596E-04   -0.70183E-04  3428   0.494E-02
  12 F= -.24653274E+03 E0= -.24652873E+03  d E =-.160386E-01
       N       E                     dE             d eps       ncg     rms          rms(c)
DAV:   1    -0.246531452781E+03    0.12693E-02   -0.21463E+00  4768   0.269E+00    0.276E-01
RMM:   2    -0.246532600883E+03   -0.11481E-02   -0.32659E-02  4721   0.306E-01    0.357E-02
RMM:   3    -0.246532752665E+03   -0.15178E-03   -0.15254E-03  3907   0.989E-02    0.300E-02
RMM:   4    -0.246532771264E+03   -0.18599E-04   -0.31011E-04  2951   0.346E-02
  13 F= -.24653277E+03 E0= -.24652877E+03  d E =-.160177E-01
       N       E                     dE             d eps       ncg     rms          rms(c)
DAV:   1    -0.246532449840E+03    0.30282E-03   -0.10565E+00  4760   0.204E+00    0.166E-01
RMM:   2    -0.246534176211E+03   -0.17264E-02   -0.22389E-02  4705   0.267E-01    0.957E-02
RMM:   3    -0.246534197552E+03   -0.21340E-04   -0.12911E-03  3715   0.952E-02    0.740E-02
RMM:   4    -0.246534114472E+03    0.83080E-04   -0.76252E-04  3436   0.485E-02
  14 F= -.24653411E+03 E0= -.24653011E+03  d E =-.160000E-01
       N       E                     dE             d eps       ncg     rms          rms(c)
DAV:   1    -0.246530240550E+03    0.39570E-02   -0.21197E+00  4760   0.287E+00    0.223E-01
RMM:   2    -0.246532502769E+03   -0.22622E-02   -0.34335E-02  4745   0.352E-01    0.402E-02
RMM:   3    -0.246532740860E+03   -0.23809E-03   -0.23251E-03  4190   0.130E-01    0.276E-02
RMM:   4    -0.246532790999E+03   -0.50140E-04   -0.49493E-04  3192   0.388E-02
  15 F= -.24653279E+03 E0= -.24652879E+03  d E =-.159887E-01
       N       E                     dE             d eps       ncg     rms          rms(c)
DAV:   1    -0.246531177238E+03    0.15636E-02   -0.10609E+00  4760   0.203E+00    0.153E-01
RMM:   2    -0.246532672475E+03   -0.14952E-02   -0.18191E-02  4684   0.250E-01    0.100E-01
RMM:   3    -0.246532723866E+03   -0.51392E-04   -0.11356E-03  3642   0.957E-02    0.835E-02
RMM:   4    -0.246532612774E+03    0.11109E-03   -0.10122E-03  3556   0.489E-02    0.253E-02
RMM:   5    -0.246532610334E+03    0.24403E-05   -0.69354E-05  2605   0.271E-02
  16 F= -.24653261E+03 E0= -.24652862E+03  d E =-.159769E-01
       N       E                     dE             d eps       ncg     rms          rms(c)
DAV:   1    -0.246530438971E+03    0.21738E-02   -0.21176E+00  4760   0.282E+00    0.211E-01
RMM:   2    -0.246533146459E+03   -0.27075E-02   -0.34942E-02  4729   0.343E-01    0.335E-02
RMM:   3    -0.246533362910E+03   -0.21645E-03   -0.22580E-03  4119   0.134E-01    0.178E-02
RMM:   4    -0.246533411223E+03   -0.48313E-04   -0.52591E-04  3150   0.372E-02
  17 F= -.24653341E+03 E0= -.24652940E+03  d E =-.160584E-01
       N       E                     dE             d eps       ncg     rms          rms(c)
DAV:   1    -0.246533460916E+03   -0.98006E-04   -0.10286E+00  4772   0.203E+00    0.164E-01
RMM:   2    -0.246534531998E+03   -0.10711E-02   -0.16288E-02  4713   0.256E-01    0.108E-01
RMM:   3    -0.246534712347E+03   -0.18035E-03   -0.16846E-03  4360   0.933E-02    0.721E-02
RMM:   4    -0.246534606739E+03    0.10561E-03   -0.57952E-04  3252   0.439E-02    0.259E-02
RMM:   5    -0.246534598649E+03    0.80906E-05   -0.10367E-04  2655   0.283E-02
  18 F= -.24653460E+03 E0= -.24653060E+03  d E =-.160091E-01
       N       E                     dE             d eps       ncg     rms          rms(c)
DAV:   1    -0.246533432730E+03    0.11740E-02   -0.19869E+00  4760   0.284E+00    0.250E-01
RMM:   2    -0.246534978718E+03   -0.15460E-02   -0.28846E-02  4768   0.382E-01    0.279E-02
RMM:   3    -0.246535167759E+03   -0.18904E-03   -0.22899E-03  4763   0.114E-01    0.186E-02
RMM:   4    -0.246535194653E+03   -0.26894E-04   -0.25320E-04  2910   0.306E-02
  19 F= -.24653519E+03 E0= -.24653119E+03  d E =-.160262E-01
       N       E                     dE             d eps       ncg     rms          rms(c)
DAV:   1    -0.246529808222E+03    0.53595E-02   -0.10558E+00  4760   0.206E+00    0.178E-01
RMM:   2    -0.246531664802E+03   -0.18566E-02   -0.22627E-02  4764   0.284E-01    0.136E-01
RMM:   3    -0.246531733196E+03   -0.68394E-04   -0.14774E-03  3869   0.984E-02    0.137E-01
RMM:   4    -0.246531669842E+03    0.63355E-04   -0.24727E-04  2884   0.337E-02
  20 F= -.24653167E+03 E0= -.24652772E+03  d E =-.157894E-01
       N       E                     dE             d eps       ncg     rms          rms(c)
DAV:   1    -0.246529608472E+03    0.21247E-02   -0.23202E+00  4760   0.279E+00    0.322E-01
RMM:   2    -0.246531504580E+03   -0.18961E-02   -0.57469E-02  4788   0.408E-01    0.214E-01
RMM:   3    -0.246531691898E+03   -0.18732E-03   -0.32771E-03  4496   0.159E-01    0.178E-01
RMM:   4    -0.246531238885E+03    0.45301E-03   -0.14225E-03  3886   0.666E-02    0.840E-02
RMM:   5    -0.246531143941E+03    0.94944E-04   -0.73377E-04  3392   0.525E-02
  21 F= -.24653114E+03 E0= -.24652711E+03  d E =-.161182E-01
       N       E                     dE             d eps       ncg     rms          rms(c)
DAV:   1    -0.246530551777E+03    0.68711E-03   -0.11206E+00  4760   0.191E+00    0.199E-01
RMM:   2    -0.246531809985E+03   -0.12582E-02   -0.20888E-02  4717   0.246E-01    0.154E-01
RMM:   3    -0.246531829502E+03   -0.19518E-04   -0.13413E-03  3744   0.902E-02    0.134E-01
RMM:   4    -0.246531612390E+03    0.21711E-03   -0.86863E-04  3465   0.539E-02    0.700E-02
RMM:   5    -0.246531527254E+03    0.85136E-04   -0.44749E-04  3014   0.370E-02
  22 F= -.24653153E+03 E0= -.24652751E+03  d E =-.160537E-01
       N       E                     dE             d eps       ncg     rms          rms(c)
DAV:   1    -0.246529224399E+03    0.23880E-02   -0.22129E+00  4760   0.268E+00    0.257E-01
RMM:   2    -0.246531606772E+03   -0.23824E-02   -0.33945E-02  4721   0.319E-01    0.495E-02
RMM:   3    -0.246531745092E+03   -0.13832E-03   -0.19189E-03  3895   0.113E-01    0.305E-02
RMM:   4    -0.246531774886E+03   -0.29794E-04   -0.43377E-04  3005   0.386E-02
  23 F= -.24653177E+03 E0= -.24652778E+03  d E =-.159706E-01
       N       E                     dE             d eps       ncg     rms          rms(c)
DAV:   1    -0.246536432339E+03   -0.46872E-02   -0.10477E+00  4760   0.190E+00    0.194E-01
RMM:   2    -0.246537269872E+03   -0.83753E-03   -0.14698E-02  4707   0.229E-01    0.114E-01
RMM:   3    -0.246537377433E+03   -0.10756E-03   -0.11724E-03  3860   0.806E-02    0.593E-02
RMM:   4    -0.246537349182E+03    0.28251E-04   -0.44041E-04  3099   0.426E-02
  24 F= -.24653735E+03 E0= -.24653336E+03  d E =-.159524E-01
       N       E                     dE             d eps       ncg     rms          rms(c)
DAV:   1    -0.246533517024E+03    0.38604E-02   -0.19644E+00  4760   0.273E+00    0.284E-01
RMM:   2    -0.246534532677E+03   -0.10157E-02   -0.22306E-02  4751   0.309E-01    0.339E-02
RMM:   3    -0.246534683459E+03   -0.15078E-03   -0.14487E-03  4129   0.101E-01    0.253E-02
RMM:   4    -0.246534711862E+03   -0.28403E-04   -0.25357E-04  2893   0.314E-02
  25 F= -.24653471E+03 E0= -.24653067E+03  d E =-.161587E-01
       N       E                     dE             d eps       ncg     rms          rms(c)
DAV:   1    -0.246530498553E+03    0.41849E-02   -0.10434E+00  4760   0.199E+00    0.190E-01
RMM:   2    -0.246531724001E+03   -0.12254E-02   -0.18853E-02  4678   0.246E-01    0.117E-01
RMM:   3    -0.246531574169E+03    0.14983E-03   -0.12636E-03  3638   0.857E-02    0.894E-02
RMM:   4    -0.246531492228E+03    0.81941E-04   -0.10740E-03  3650   0.555E-02    0.508E-02
RMM:   5    -0.246531525952E+03   -0.33724E-04   -0.11946E-04  2687   0.353E-02
  26 F= -.24653153E+03 E0= -.24652748E+03  d E =-.161693E-01
       N       E                     dE             d eps       ncg     rms          rms(c)
DAV:   1    -0.246528866106E+03    0.26261E-02   -0.22463E+00  4760   0.279E+00    0.277E-01
RMM:   2    -0.246530663367E+03   -0.17973E-02   -0.41917E-02  4751   0.363E-01    0.364E-02
RMM:   3    -0.246530944676E+03   -0.28131E-03   -0.25763E-03  4045   0.126E-01    0.213E-02
RMM:   4    -0.246531004462E+03   -0.59786E-04   -0.48233E-04  3189   0.405E-02
  27 F= -.24653100E+03 E0= -.24652704E+03  d E =-.158452E-01
       N       E                     dE             d eps       ncg     rms          rms(c)
DAV:   1    -0.246530196329E+03    0.74835E-03   -0.11060E+00  4760   0.197E+00    0.180E-01
RMM:   2    -0.246531606595E+03   -0.14103E-02   -0.19451E-02  4669   0.244E-01    0.121E-01
RMM:   3    -0.246531628638E+03   -0.22043E-04   -0.11599E-03  3536   0.884E-02    0.952E-02
RMM:   4    -0.246531474793E+03    0.15384E-03   -0.83119E-04  3424   0.492E-02    0.482E-02
RMM:   5    -0.246531460928E+03    0.13865E-04   -0.88784E-05  2626   0.287E-02
  28 F= -.24653146E+03 E0= -.24652743E+03  d E =-.161259E-01
       N       E                     dE             d eps       ncg     rms          rms(c)
DAV:   1    -0.246529439549E+03    0.20352E-02   -0.22128E+00  4760   0.274E+00    0.261E-01
RMM:   2    -0.246531604821E+03   -0.21653E-02   -0.34543E-02  4731   0.324E-01    0.336E-02
RMM:   3    -0.246531785565E+03   -0.18074E-03   -0.18943E-03  3867   0.114E-01    0.229E-02
RMM:   4    -0.246531830455E+03   -0.44890E-04   -0.43448E-04  3039   0.382E-02
  29 F= -.24653183E+03 E0= -.24652784E+03  d E =-.159420E-01
       N       E                     dE             d eps       ncg     rms          rms(c)
DAV:   1    -0.246535368153E+03   -0.35826E-02   -0.10509E+00  4760   0.193E+00    0.192E-01
RMM:   2    -0.246536411633E+03   -0.10435E-02   -0.15571E-02  4715   0.237E-01    0.118E-01
RMM:   3    -0.246536278482E+03    0.13315E-03   -0.12626E-03  3798   0.831E-02    0.582E-02
RMM:   4    -0.246536309946E+03   -0.31464E-04   -0.39637E-04  3045   0.406E-02
  30 F= -.24653631E+03 E0= -.24653233E+03  d E =-.159334E-01
       N       E                     dE             d eps       ncg     rms          rms(c)
DAV:   1    -0.246534247476E+03    0.20310E-02   -0.19755E+00  4760   0.275E+00    0.282E-01
RMM:   2    -0.246535357313E+03   -0.11098E-02   -0.24068E-02  4756   0.324E-01    0.335E-02
RMM:   3    -0.246535516696E+03   -0.15938E-03   -0.15779E-03  4214   0.101E-01    0.250E-02
RMM:   4    -0.246535532423E+03   -0.15727E-04   -0.24195E-04  2899   0.311E-02
  31 F= -.24653553E+03 E0= -.24653150E+03  d E =-.161291E-01
       N       E                     dE             d eps       ncg     rms          rms(c)
DAV:   1    -0.246530616618E+03    0.49001E-02   -0.10140E+00  4760   0.197E+00    0.179E-01
RMM:   2    -0.246531833312E+03   -0.12167E-02   -0.15953E-02  4694   0.228E-01    0.125E-01
RMM:   3    -0.246531896305E+03   -0.62993E-04   -0.87157E-04  3388   0.757E-02
  32 F= -.24653190E+03 E0= -.24652789E+03  d E =-.160384E-01
       N       E                     dE             d eps       ncg     rms          rms(c)
DAV:   1    -0.246529496097E+03    0.23372E-02   -0.22344E+00  4760   0.267E+00    0.202E-01
RMM:   2    -0.246531736548E+03   -0.22405E-02   -0.31034E-02  4719   0.300E-01    0.123E-01
RMM:   3    -0.246531536039E+03    0.20051E-03   -0.19906E-03  4038   0.980E-02    0.746E-02
RMM:   4    -0.246531611387E+03   -0.75348E-04   -0.35600E-04  3028   0.375E-02
  33 F= -.24653161E+03 E0= -.24652758E+03  d E =-.161133E-01
       N       E                     dE             d eps       ncg     rms          rms(c)
DAV:   1    -0.246532448995E+03   -0.91296E-03   -0.10911E+00  4760   0.189E+00    0.178E-01
RMM:   2    -0.246533536441E+03   -0.10874E-02   -0.16024E-02  4655   0.224E-01    0.115E-01
RMM:   3    -0.246533605468E+03   -0.69027E-04   -0.12079E-03  3598   0.823E-02    0.105E-01
RMM:   4    -0.246533340481E+03    0.26499E-03   -0.58841E-04  3219   0.460E-02    0.544E-02
RMM:   5    -0.246533310531E+03    0.29950E-04   -0.11794E-04  2674   0.290E-02
  34 F= -.24653331E+03 E0= -.24652929E+03  d E =-.160886E-01
       N       E                     dE             d eps       ncg     rms          rms(c)
DAV:   1    -0.246531083709E+03    0.22568E-02   -0.21591E+00  4766   0.265E+00    0.247E-01
RMM:   2    -0.246532743668E+03   -0.16600E-02   -0.34689E-02  4741   0.326E-01    0.429E-02
RMM:   3    -0.246532913382E+03   -0.16971E-03   -0.17771E-03  3979   0.117E-01    0.285E-02
RMM:   4    -0.246532947394E+03   -0.34012E-04   -0.37489E-04  3012   0.361E-02
  35 F= -.24653295E+03 E0= -.24652894E+03  d E =-.160422E-01
       N       E                     dE             d eps       ncg     rms          rms(c)
DAV:   1    -0.246532298744E+03    0.61464E-03   -0.10777E+00  4760   0.190E+00    0.186E-01
RMM:   2    -0.246533221129E+03   -0.92238E-03   -0.16016E-02  4646   0.224E-01    0.127E-01
RMM:   3    -0.246533073161E+03    0.14797E-03   -0.10287E-03  3541   0.819E-02    0.898E-02
RMM:   4    -0.246532897717E+03    0.17544E-03   -0.68703E-04  3290   0.432E-02    0.392E-02
RMM:   5    -0.246532907388E+03   -0.96712E-05   -0.16840E-04  2784   0.311E-02
  36 F= -.24653291E+03 E0= -.24652890E+03  d E =-.160169E-01
       N       E                     dE             d eps       ncg     rms          rms(c)
DAV:   1    -0.246531778701E+03    0.11190E-02   -0.21477E+00  4760   0.269E+00    0.278E-01
RMM:   2    -0.246532551402E+03   -0.77270E-03   -0.29735E-02  4724   0.303E-01    0.341E-02
RMM:   3    -0.246532661419E+03   -0.11002E-03   -0.14732E-03  3866   0.101E-01    0.251E-02
RMM:   4    -0.246532686323E+03   -0.24903E-04   -0.31336E-04  2967   0.339E-02
  37 F= -.24653269E+03 E0= -.24652868E+03  d E =-.160339E-01
       N       E                     dE             d eps       ncg     rms          rms(c)
DAV:   1    -0.246535635965E+03   -0.29745E-02   -0.61810E-01  4760   0.145E+00    0.167E-01
RMM:   2    -0.246536000195E+03   -0.36423E-03   -0.97781E-03  4544   0.168E-01    0.820E-02
RMM:   3    -0.246535988583E+03    0.11612E-04   -0.71025E-04  3257   0.607E-02
  38 F= -.24653599E+03 E0= -.24653196E+03  d E =-.161008E-01
       N       E                     dE             d eps       ncg     rms          rms(c)
DAV:   1    -0.246536478210E+03   -0.47801E-03   -0.33832E-01  4874   0.830E-01    0.204E-01
RMM:   2    -0.246536299442E+03    0.17877E-03   -0.52218E-03  4368   0.118E-01    0.355E-02
RMM:   3    -0.246536295276E+03    0.41654E-05   -0.25190E-04  2834   0.406E-02
  39 F= -.24653630E+03 E0= -.24653229E+03  d E =-.160058E-01
       N       E                     dE             d eps       ncg     rms          rms(c)
DAV:   1    -0.246534668335E+03    0.16311E-02   -0.18330E-01  4942   0.622E-01    0.205E-01
RMM:   2    -0.246534210306E+03    0.45803E-03   -0.47474E-03  4292   0.115E-01    0.984E-02
RMM:   3    -0.246534099717E+03    0.11059E-03   -0.57327E-04  3101   0.456E-02    0.491E-02
RMM:   4    -0.246534091444E+03    0.82726E-05   -0.27825E-04  2894   0.337E-02
  40 F= -.24653409E+03 E0= -.24653008E+03  d E =-.160460E-01
       N       E                     dE             d eps       ncg     rms          rms(c)
DAV:   1    -0.246536405047E+03   -0.23053E-02   -0.35445E-01  4902   0.855E-01    0.258E-01
RMM:   2    -0.246535554467E+03    0.85058E-03   -0.85228E-03  4467   0.140E-01    0.363E-02
RMM:   3    -0.246535567210E+03   -0.12743E-04   -0.39387E-04  2967   0.501E-02
  41 F= -.24653557E+03 E0= -.24653157E+03  d E =-.159960E-01
       N       E                     dE             d eps       ncg     rms          rms(c)
DAV:   1    -0.246537207906E+03   -0.16534E-02   -0.16542E-01  4860   0.598E-01    0.149E-01
RMM:   2    -0.246537087505E+03    0.12040E-03   -0.25169E-03  3891   0.833E-02    0.645E-02
RMM:   3    -0.246537082445E+03    0.50599E-05   -0.30049E-04  2908   0.400E-02
  42 F= -.24653708E+03 E0= -.24653308E+03  d E =-.160112E-01
       N       E                     dE             d eps       ncg     rms          rms(c)
DAV:   1    -0.246537178236E+03   -0.90730E-04   -0.31260E-01  4838   0.825E-01    0.176E-01
RMM:   2    -0.246537375526E+03   -0.19729E-03   -0.32873E-03  4127   0.104E-01    0.232E-02
RMM:   3    -0.246537385168E+03   -0.96419E-05   -0.17184E-04  2730   0.373E-02
  43 F= -.24653739E+03 E0= -.24653337E+03  d E =-.160647E-01
       N       E                     dE             d eps       ncg     rms          rms(c)
DAV:   1    -0.246536911911E+03    0.46362E-03   -0.15907E-01  4816   0.682E-01    0.119E-01
RMM:   2    -0.246537052560E+03   -0.14065E-03   -0.18054E-03  3798   0.755E-02    0.603E-02
RMM:   3    -0.246537060506E+03   -0.79461E-05   -0.18210E-04  2780   0.345E-02
  44 F= -.24653706E+03 E0= -.24653306E+03  d E =-.160218E-01
       N       E                     dE             d eps       ncg     rms          rms(c)
DAV:   1    -0.246536763389E+03    0.28917E-03   -0.32581E-01  4784   0.943E-01    0.159E-01
RMM:   2    -0.246537018818E+03   -0.25543E-03   -0.29291E-03  4062   0.922E-02    0.189E-02
RMM:   3    -0.246537027173E+03   -0.83552E-05   -0.12971E-04  2692   0.311E-02
  45 F= -.24653703E+03 E0= -.24653301E+03  d E =-.160500E-01
       N       E                     dE             d eps       ncg     rms          rms(c)
DAV:   1    -0.246537445258E+03   -0.42644E-03   -0.16207E-01  4766   0.669E-01    0.113E-01
RMM:   2    -0.246537582975E+03   -0.13772E-03   -0.15089E-03  3727   0.675E-02    0.654E-02
RMM:   3    -0.246537546190E+03    0.36786E-04   -0.24857E-04  2871   0.347E-02
  46 F= -.24653755E+03 E0= -.24653355E+03  d E =-.159945E-01
       N       E                     dE             d eps       ncg     rms          rms(c)
DAV:   1    -0.246536289742E+03    0.12932E-02   -0.32282E-01  4766   0.945E-01    0.158E-01
RMM:   2    -0.246536563517E+03   -0.27377E-03   -0.27749E-03  4100   0.931E-02    0.228E-02
RMM:   3    -0.246536573645E+03   -0.10128E-04   -0.13247E-04  2712   0.308E-02
  47 F= -.24653657E+03 E0= -.24653257E+03  d E =-.160315E-01
       N       E                     dE             d eps       ncg     rms          rms(c)
DAV:   1    -0.246535208552E+03    0.13550E-02   -0.16974E-01  4862   0.685E-01    0.164E-01
RMM:   2    -0.246534829000E+03    0.37955E-03   -0.35513E-03  4408   0.104E-01    0.892E-02
RMM:   3    -0.246534739158E+03    0.89843E-04   -0.65905E-04  3217   0.404E-02
  48 F= -.24653474E+03 E0= -.24653072E+03  d E =-.160883E-01
       N       E                     dE             d eps       ncg     rms          rms(c)
DAV:   1    -0.246534844483E+03   -0.15482E-04   -0.36145E-01  4936   0.100E+00    0.279E-01
RMM:   2    -0.246534112975E+03    0.73151E-03   -0.14712E-02  4690   0.190E-01    0.348E-02
RMM:   3    -0.246534164190E+03   -0.51215E-04   -0.88296E-04  3568   0.593E-02
  49 F= -.24653416E+03 E0= -.24653016E+03  d E =-.160159E-01
       N       E                     dE             d eps       ncg     rms          rms(c)
DAV:   1    -0.246534774649E+03   -0.66167E-03   -0.17647E-01  4972   0.719E-01    0.188E-01
RMM:   2    -0.246534814746E+03   -0.40097E-04   -0.54660E-03  4396   0.122E-01    0.107E-01
RMM:   3    -0.246534644320E+03    0.17043E-03   -0.64226E-04  3210   0.487E-02    0.633E-02
RMM:   4    -0.246534609139E+03    0.35180E-04   -0.27924E-04  2854   0.378E-02
  50 F= -.24653461E+03 E0= -.24653060E+03  d E =-.160484E-01
       N       E                     dE             d eps       ncg     rms          rms(c)
DAV:   1    -0.246534793405E+03   -0.14909E-03   -0.36600E-01  4926   0.943E-01    0.276E-01
RMM:   2    -0.246533804289E+03    0.98912E-03   -0.12256E-02  4533   0.172E-01    0.272E-02
RMM:   3    -0.246533876072E+03   -0.71783E-04   -0.57195E-04  3179   0.587E-02
  51 F= -.24653388E+03 E0= -.24652987E+03  d E =-.160371E-01
       N       E                     dE             d eps       ncg     rms          rms(c)
DAV:   1    -0.246536428376E+03   -0.26241E-02   -0.17276E-01  4820   0.653E-01    0.159E-01
RMM:   2    -0.246536197898E+03    0.23048E-03   -0.32210E-03  4013   0.930E-02    0.593E-02
RMM:   3    -0.246536206011E+03   -0.81127E-05   -0.24211E-04  2831   0.392E-02
  52 F= -.24653621E+03 E0= -.24653220E+03  d E =-.160089E-01
       N       E                     dE             d eps       ncg     rms          rms(c)
DAV:   1    -0.246537531790E+03   -0.13339E-02   -0.32909E-01  4760   0.887E-01    0.162E-01
RMM:   2    -0.246537776013E+03   -0.24422E-03   -0.28029E-03  3973   0.925E-02    0.233E-02
RMM:   3    -0.246537793885E+03   -0.17872E-04   -0.15478E-04  2716   0.329E-02
  53 F= -.24653779E+03 E0= -.24653378E+03  d E =-.160543E-01
       N       E                     dE             d eps       ncg     rms          rms(c)
DAV:   1    -0.246536982059E+03    0.79395E-03   -0.16369E-01  4864   0.630E-01    0.117E-01
RMM:   2    -0.246537097269E+03   -0.11521E-03   -0.13123E-03  3488   0.616E-02    0.584E-02
RMM:   3    -0.246537109677E+03   -0.12408E-04   -0.13624E-04  2729   0.302E-02
  54 F= -.24653711E+03 E0= -.24653310E+03  d E =-.160471E-01
       N       E                     dE             d eps       ncg     rms          rms(c)
DAV:   1    -0.246536586954E+03    0.51031E-03   -0.32625E-01  4760   0.882E-01    0.163E-01
RMM:   2    -0.246536825700E+03   -0.23875E-03   -0.29298E-03  3909   0.902E-02    0.228E-02
RMM:   3    -0.246536836603E+03   -0.10904E-04   -0.14707E-04  2712   0.324E-02
  55 F= -.24653684E+03 E0= -.24653283E+03  d E =-.160243E-01
       N       E                     dE             d eps       ncg     rms          rms(c)
DAV:   1    -0.246536088308E+03    0.73739E-03   -0.16377E-01  4824   0.658E-01    0.124E-01
RMM:   2    -0.246536143246E+03   -0.54938E-04   -0.19713E-03  3734   0.766E-02    0.702E-02
RMM:   3    -0.246536068130E+03    0.75116E-04   -0.23867E-04  2861   0.323E-02
  56 F= -.24653607E+03 E0= -.24653207E+03  d E =-.160023E-01
       N       E                     dE             d eps       ncg     rms          rms(c)
DAV:   1    -0.246536557873E+03   -0.41463E-03   -0.33531E-01  4908   0.841E-01    0.193E-01
RMM:   2    -0.246536606043E+03   -0.48170E-04   -0.47047E-03  4376   0.115E-01    0.330E-02
RMM:   3    -0.246536620126E+03   -0.14084E-04   -0.21503E-04  2835   0.361E-02
  57 F= -.24653662E+03 E0= -.24653262E+03  d E =-.160148E-01
       N       E                     dE             d eps       ncg     rms          rms(c)
DAV:   1    -0.246534857322E+03    0.17487E-02   -0.16547E-01  4978   0.586E-01    0.127E-01
RMM:   2    -0.246534996598E+03   -0.13928E-03   -0.18111E-03  3691   0.714E-02    0.898E-02
RMM:   3    -0.246534923397E+03    0.73201E-04   -0.52700E-04  3055   0.396E-02
  58 F= -.24653492E+03 E0= -.24653090E+03  d E =-.161044E-01
       N       E                     dE             d eps       ncg     rms          rms(c)
DAV:   1    -0.246535372859E+03   -0.37626E-03   -0.34962E-01  4892   0.862E-01    0.261E-01
RMM:   2    -0.246534463590E+03    0.90927E-03   -0.92867E-03  4542   0.153E-01    0.347E-02
RMM:   3    -0.246534499273E+03   -0.35683E-04   -0.47475E-04  3066   0.512E-02
  59 F= -.24653450E+03 E0= -.24653048E+03  d E =-.160602E-01
       N       E                     dE             d eps       ncg     rms          rms(c)
DAV:   1    -0.246537775096E+03   -0.33115E-02   -0.16330E-01  4956   0.603E-01    0.146E-01
RMM:   2    -0.246537683067E+03    0.92028E-04   -0.24560E-03  3843   0.849E-02    0.634E-02
RMM:   3    -0.246537695548E+03   -0.12481E-04   -0.22327E-04  2849   0.380E-02
  60 F= -.24653770E+03 E0= -.24653369E+03  d E =-.160036E-01
       N       E                     dE             d eps       ncg     rms          rms(c)
DAV:   1    -0.246536495443E+03    0.11876E-02   -0.31138E-01  4890   0.827E-01    0.175E-01
RMM:   2    -0.246536719064E+03   -0.22362E-03   -0.34672E-03  4100   0.103E-01    0.213E-02
RMM:   3    -0.246536731045E+03   -0.11981E-04   -0.16392E-04  2739   0.357E-02
  61 F= -.24653673E+03 E0= -.24653272E+03  d E =-.160260E-01
       N       E                     dE             d eps       ncg     rms          rms(c)
DAV:   1    -0.246534643186E+03    0.20759E-02   -0.16741E-01  4950   0.683E-01    0.157E-01
RMM:   2    -0.246534750494E+03   -0.10731E-03   -0.42090E-03  4211   0.113E-01    0.105E-01
RMM:   3    -0.246534508487E+03    0.24201E-03   -0.69065E-04  3199   0.487E-02    0.530E-02
RMM:   4    -0.246534486172E+03    0.22315E-04   -0.29261E-04  2894   0.340E-02
  62 F= -.24653449E+03 E0= -.24653046E+03  d E =-.161069E-01
       N       E                     dE             d eps       ncg     rms          rms(c)
DAV:   1    -0.246534814582E+03   -0.30610E-03   -0.36917E-01  4918   0.970E-01    0.280E-01
RMM:   2    -0.246533933772E+03    0.88081E-03   -0.13612E-02  4644   0.182E-01    0.308E-02
RMM:   3    -0.246533979362E+03   -0.45589E-04   -0.57674E-04  3168   0.587E-02
  63 F= -.24653398E+03 E0= -.24652998E+03  d E =-.160065E-01
       N       E                     dE             d eps       ncg     rms          rms(c)
DAV:   1    -0.246537823770E+03   -0.38900E-02   -0.17440E-01  5002   0.657E-01    0.160E-01
RMM:   2    -0.246537571610E+03    0.25216E-03   -0.35292E-03  4131   0.979E-02    0.583E-02
RMM:   3    -0.246537611134E+03   -0.39525E-04   -0.28933E-04  2925   0.396E-02
  64 F= -.24653761E+03 E0= -.24653363E+03  d E =-.159251E-01
       N       E                     dE             d eps       ncg     rms          rms(c)
DAV:   1    -0.246536140696E+03    0.14309E-02   -0.32929E-01  4864   0.900E-01    0.162E-01
RMM:   2    -0.246536341832E+03   -0.20114E-03   -0.27556E-03  3998   0.913E-02    0.211E-02
RMM:   3    -0.246536372774E+03   -0.30942E-04   -0.14660E-04  2722   0.324E-02
  65 F= -.24653637E+03 E0= -.24653236E+03  d E =-.160540E-01
       N       E                     dE             d eps       ncg     rms          rms(c)
DAV:   1    -0.246536897651E+03   -0.55582E-03   -0.16407E-01  4784   0.639E-01    0.117E-01
RMM:   2    -0.246537023973E+03   -0.12632E-03   -0.13921E-03  3552   0.642E-02    0.643E-02
RMM:   3    -0.246537021458E+03    0.25144E-05   -0.13564E-04  2757   0.301E-02
  66 F= -.24653702E+03 E0= -.24653301E+03  d E =-.160439E-01
       N       E                     dE             d eps       ncg     rms          rms(c)
DAV:   1    -0.246536668311E+03    0.35566E-03   -0.32574E-01  4934   0.895E-01    0.162E-01
RMM:   2    -0.246536775381E+03   -0.10707E-03   -0.33187E-03  4333   0.987E-02    0.220E-02
RMM:   3    -0.246536855902E+03   -0.80521E-04   -0.17106E-04  2785   0.317E-02
  67 F= -.24653686E+03 E0= -.24653284E+03  d E =-.160658E-01
       N       E                     dE             d eps       ncg     rms          rms(c)
DAV:   1    -0.246536746070E+03    0.29311E-04   -0.16129E-01  4790   0.695E-01    0.108E-01
RMM:   2    -0.246536897666E+03   -0.15160E-03   -0.18818E-03  3594   0.717E-02    0.582E-02
RMM:   3    -0.246536855995E+03    0.41672E-04   -0.20759E-04  2839   0.335E-02
  68 F= -.24653686E+03 E0= -.24653284E+03  d E =-.160533E-01
       N       E                     dE             d eps       ncg     rms          rms(c)
DAV:   1    -0.246536918698E+03   -0.21031E-04   -0.32547E-01  4760   0.950E-01    0.157E-01
RMM:   2    -0.246537227140E+03   -0.30844E-03   -0.30546E-03  4094   0.946E-02    0.216E-02
RMM:   3    -0.246537224390E+03    0.27495E-05   -0.14717E-04  2741   0.315E-02
  69 F= -.24653722E+03 E0= -.24653322E+03  d E =-.160289E-01
       N       E                     dE             d eps       ncg     rms          rms(c)
DAV:   1    -0.246537203215E+03    0.23925E-04   -0.16193E-01  4814   0.673E-01    0.111E-01
RMM:   2    -0.246537279811E+03   -0.76597E-04   -0.13411E-03  3706   0.657E-02    0.576E-02
RMM:   3    -0.246537298410E+03   -0.18599E-04   -0.14461E-04  2772   0.282E-02
  70 F= -.24653730E+03 E0= -.24653330E+03  d E =-.159771E-01
       N       E                     dE             d eps       ncg     rms          rms(c)
DAV:   1    -0.246536485301E+03    0.79451E-03   -0.32424E-01  4760   0.953E-01    0.158E-01
RMM:   2    -0.246536742153E+03   -0.25685E-03   -0.26724E-03  4056   0.923E-02    0.208E-02
RMM:   3    -0.246536757569E+03   -0.15416E-04   -0.12900E-04  2713   0.316E-02
  71 F= -.24653676E+03 E0= -.24653274E+03  d E =-.160588E-01
       N       E                     dE             d eps       ncg     rms          rms(c)
DAV:   1    -0.246535193697E+03    0.15485E-02   -0.17047E-01  4848   0.690E-01    0.161E-01
RMM:   2    -0.246535099927E+03    0.93770E-04   -0.30972E-03  4063   0.983E-02    0.911E-02
RMM:   3    -0.246534949554E+03    0.15037E-03   -0.66035E-04  3205   0.434E-02    0.447E-02
RMM:   4    -0.246534978729E+03   -0.29175E-04   -0.15747E-04  2768   0.308E-02
  72 F= -.24653498E+03 E0= -.24653097E+03  d E =-.160491E-01
       N       E                     dE             d eps       ncg     rms          rms(c)
DAV:   1    -0.246534806974E+03    0.14258E-03   -0.36238E-01  4840   0.101E+00    0.274E-01
RMM:   2    -0.246534009286E+03    0.79769E-03   -0.12911E-02  4553   0.175E-01    0.246E-02
RMM:   3    -0.246534070559E+03   -0.61273E-04   -0.67345E-04  3262   0.547E-02
  73 F= -.24653407E+03 E0= -.24653007E+03  d E =-.160025E-01
       N       E                     dE             d eps       ncg     rms          rms(c)
DAV:   1    -0.246537374803E+03   -0.33655E-02   -0.17320E-01  4864   0.734E-01    0.164E-01
RMM:   2    -0.246537210414E+03    0.16439E-03   -0.44930E-03  4335   0.114E-01    0.668E-02
RMM:   3    -0.246537234211E+03   -0.23797E-04   -0.52559E-04  3121   0.442E-02
  74 F= -.24653723E+03 E0= -.24653323E+03  d E =-.160183E-01
       N       E                     dE             d eps       ncg     rms          rms(c)
DAV:   1    -0.246535997413E+03    0.12130E-02   -0.33223E-01  4766   0.942E-01    0.185E-01
RMM:   2    -0.246536000085E+03   -0.26722E-05   -0.40900E-03  4345   0.113E-01    0.252E-02
RMM:   3    -0.246536022655E+03   -0.22569E-04   -0.21563E-04  2798   0.398E-02
  75 F= -.24653602E+03 E0= -.24653203E+03  d E =-.159685E-01
       N       E                     dE             d eps       ncg     rms          rms(c)
DAV:   1    -0.246534551276E+03    0.14488E-02   -0.16503E-01  4916   0.664E-01    0.127E-01
RMM:   2    -0.246534679169E+03   -0.12789E-03   -0.17139E-03  3817   0.752E-02    0.867E-02
RMM:   3    -0.246534583508E+03    0.95660E-04   -0.30157E-04  2928   0.395E-02
  76 F= -.24653458E+03 E0= -.24653057E+03  d E =-.160568E-01
       N       E                     dE             d eps       ncg     rms          rms(c)
DAV:   1    -0.246536017722E+03   -0.13386E-02   -0.36385E-01  4900   0.992E-01    0.266E-01
RMM:   2    -0.246535129953E+03    0.88777E-03   -0.96558E-03  4608   0.164E-01    0.327E-02
RMM:   3    -0.246535164215E+03   -0.34263E-04   -0.49449E-04  3164   0.567E-02
  77 F= -.24653516E+03 E0= -.24653116E+03  d E =-.160152E-01
       N       E                     dE             d eps       ncg     rms          rms(c)
DAV:   1    -0.246537574943E+03   -0.24450E-02   -0.17772E-01  4982   0.688E-01    0.188E-01
RMM:   2    -0.246537083539E+03    0.49140E-03   -0.45633E-03  4401   0.118E-01    0.661E-02
RMM:   3    -0.246537082167E+03    0.13723E-05   -0.36240E-04  3001   0.430E-02
  78 F= -.24653708E+03 E0= -.24653307E+03  d E =-.160297E-01
       N       E                     dE             d eps       ncg     rms          rms(c)
DAV:   1    -0.246536489384E+03    0.59415E-03   -0.32449E-01  4772   0.942E-01    0.184E-01
RMM:   2    -0.246536633442E+03   -0.14406E-03   -0.38792E-03  4356   0.117E-01    0.225E-02
RMM:   3    -0.246536642974E+03   -0.95319E-05   -0.20683E-04  2801   0.391E-02
  79 F= -.24653664E+03 E0= -.24653263E+03  d E =-.160419E-01
       N       E                     dE             d eps       ncg     rms          rms(c)
DAV:   1    -0.246532019225E+03    0.46142E-02   -0.63671E-01  4760   0.147E+00    0.158E-01
RMM:   2    -0.246532695836E+03   -0.67661E-03   -0.84758E-03  4447   0.160E-01    0.124E-01
RMM:   3    -0.246532544568E+03    0.15127E-03   -0.36002E-04  2971   0.468E-02    0.885E-02
RMM:   4    -0.246532367679E+03    0.17689E-03   -0.68025E-04  3288   0.416E-02    0.226E-02
RMM:   5    -0.246532366556E+03    0.11225E-05   -0.64102E-05  2585   0.257E-02
  80 F= -.24653237E+03 E0= -.24652837E+03  d E =-.159776E-01
       N       E                     dE             d eps       ncg     rms          rms(c)
DAV:   1    -0.246530948043E+03    0.14196E-02   -0.22294E+00  4760   0.267E+00    0.266E-01
RMM:   2    -0.246531616734E+03   -0.66869E-03   -0.25757E-02  4678   0.270E-01    0.261E-02
RMM:   3    -0.246531686630E+03   -0.69896E-04   -0.85558E-04  3358   0.734E-02
  81 F= -.24653169E+03 E0= -.24652768E+03  d E =-.160383E-01
       N       E                     dE             d eps       ncg     rms          rms(c)
DAV:   1    -0.246532141060E+03   -0.52433E-03   -0.10939E+00  4760   0.192E+00    0.186E-01
RMM:   2    -0.246532776166E+03   -0.63511E-03   -0.14036E-02  4638   0.210E-01    0.120E-01
RMM:   3    -0.246532596127E+03    0.18004E-03   -0.80915E-04  3420   0.672E-02    0.735E-02
RMM:   4    -0.246532559572E+03    0.36554E-04   -0.50073E-04  3129   0.410E-02
  82 F= -.24653256E+03 E0= -.24652853E+03  d E =-.161019E-01
       N       E                     dE             d eps       ncg     rms          rms(c)
DAV:   1    -0.246531528008E+03    0.10681E-02   -0.22024E+00  4760   0.268E+00    0.261E-01
RMM:   2    -0.246532445110E+03   -0.91710E-03   -0.27231E-02  4704   0.283E-01    0.399E-02
RMM:   3    -0.246532518183E+03   -0.73073E-04   -0.11164E-03  3588   0.838E-02    0.241E-02
RMM:   4    -0.246532537108E+03   -0.18925E-04   -0.26817E-04  2865   0.327E-02
  83 F= -.24653254E+03 E0= -.24652854E+03  d E =-.159777E-01
       N       E                     dE             d eps       ncg     rms          rms(c)
DAV:   1    -0.246531525915E+03    0.99227E-03   -0.10830E+00  4760   0.191E+00    0.184E-01
RMM:   2    -0.246532290454E+03   -0.76454E-03   -0.13562E-02  4604   0.212E-01    0.125E-01
RMM:   3    -0.246532021417E+03    0.26904E-03   -0.85094E-04  3509   0.695E-02    0.675E-02
RMM:   4    -0.246531975342E+03    0.46074E-04   -0.51319E-04  3198   0.419E-02
  84 F= -.24653198E+03 E0= -.24652795E+03  d E =-.161194E-01
       N       E                     dE             d eps       ncg     rms          rms(c)
DAV:   1    -0.246532277598E+03   -0.25618E-03   -0.21915E+00  4760   0.270E+00    0.273E-01
RMM:   2    -0.246532929805E+03   -0.65221E-03   -0.25279E-02  4689   0.277E-01    0.331E-02
RMM:   3    -0.246532996619E+03   -0.66814E-04   -0.99497E-04  3590   0.797E-02
  85 F= -.24653300E+03 E0= -.24652901E+03  d E =-.159338E-01
       N       E                     dE             d eps       ncg     rms          rms(c)
DAV:   1    -0.246536529224E+03   -0.35994E-02   -0.60729E-01  4768   0.143E+00    0.158E-01
RMM:   2    -0.246536702179E+03   -0.17295E-03   -0.69338E-03  4367   0.146E-01    0.692E-02
RMM:   3    -0.246536712706E+03   -0.10527E-04   -0.32713E-04  2926   0.457E-02
  86 F= -.24653671E+03 E0= -.24653271E+03  d E =-.160086E-01
       N       E                     dE             d eps       ncg     rms          rms(c)
DAV:   1    -0.246536560126E+03    0.14205E-03   -0.33332E-01  4812   0.850E-01    0.181E-01
RMM:   2    -0.246536529430E+03    0.30695E-04   -0.44735E-03  4248   0.109E-01    0.292E-02
RMM:   3    -0.246536598519E+03   -0.69088E-04   -0.23314E-04  2843   0.375E-02
  87 F= -.24653660E+03 E0= -.24653259E+03  d E =-.160305E-01
       N       E                     dE             d eps       ncg     rms          rms(c)
DAV:   1    -0.246534687691E+03    0.18417E-02   -0.16438E-01  4784   0.600E-01    0.119E-01
RMM:   2    -0.246534841466E+03   -0.15377E-03   -0.17868E-03  3573   0.682E-02    0.869E-02
RMM:   3    -0.246534714748E+03    0.12672E-03   -0.26732E-04  2868   0.339E-02    0.393E-02
RMM:   4    -0.246534718902E+03   -0.41537E-05   -0.14424E-04  2708   0.230E-02
  88 F= -.24653472E+03 E0= -.24653072E+03  d E =-.159885E-01
       N       E                     dE             d eps       ncg     rms          rms(c)
DAV:   1    -0.246535911914E+03   -0.11972E-02   -0.35899E-01  4856   0.894E-01    0.250E-01
RMM:   2    -0.246535325158E+03    0.58676E-03   -0.89917E-03  4438   0.147E-01    0.267E-02
RMM:   3    -0.246535353364E+03   -0.28206E-04   -0.37930E-04  2944   0.483E-02
  89 F= -.24653535E+03 E0= -.24653134E+03  d E =-.160379E-01
       N       E                     dE             d eps       ncg     rms          rms(c)
DAV:   1    -0.246537547699E+03   -0.22225E-02   -0.16738E-01  4986   0.602E-01    0.127E-01
RMM:   2    -0.246537582604E+03   -0.34905E-04   -0.19372E-03  3684   0.710E-02    0.635E-02
RMM:   3    -0.246537604326E+03   -0.21721E-04   -0.18140E-04  2763   0.316E-02
  90 F= -.24653760E+03 E0= -.24653360E+03  d E =-.160004E-01
       N       E                     dE             d eps       ncg     rms          rms(c)
DAV:   1    -0.246535576284E+03    0.20063E-02   -0.32832E-01  4860   0.848E-01    0.176E-01
RMM:   2    -0.246535700774E+03   -0.12449E-03   -0.36653E-03  3932   0.996E-02    0.276E-02
RMM:   3    -0.246535712537E+03   -0.11763E-04   -0.17735E-04  2720   0.340E-02
  91 F= -.24653571E+03 E0= -.24653171E+03  d E =-.160178E-01
       N       E                     dE             d eps       ncg     rms          rms(c)
DAV:   1    -0.246533472010E+03    0.22288E-02   -0.16984E-01  4840   0.676E-01    0.156E-01
RMM:   2    -0.246533542185E+03   -0.70175E-04   -0.36268E-03  3929   0.983E-02    0.936E-02
RMM:   3    -0.246533408050E+03    0.13414E-03   -0.39485E-04  2995   0.385E-02    0.461E-02
RMM:   4    -0.246533403581E+03    0.44686E-05   -0.23877E-04  2833   0.296E-02
  92 F= -.24653340E+03 E0= -.24652940E+03  d E =-.160181E-01
       N       E                     dE             d eps       ncg     rms          rms(c)
DAV:   1    -0.246536052648E+03   -0.26446E-02   -0.37069E-01  4794   0.955E-01    0.279E-01
RMM:   2    -0.246535051767E+03    0.10009E-02   -0.12155E-02  4529   0.170E-01    0.203E-02
RMM:   3    -0.246535085648E+03   -0.33882E-04   -0.49796E-04  3098   0.569E-02
  93 F= -.24653509E+03 E0= -.24653108E+03  d E =-.160293E-01
       N       E                     dE             d eps       ncg     rms          rms(c)
DAV:   1    -0.246537311746E+03   -0.22600E-02   -0.17563E-01  4886   0.651E-01    0.170E-01
RMM:   2    -0.246536988424E+03    0.32332E-03   -0.42158E-03  4038   0.989E-02    0.590E-02
RMM:   3    -0.246537023184E+03   -0.34760E-04   -0.27306E-04  2851   0.396E-02
  94 F= -.24653702E+03 E0= -.24653301E+03  d E =-.160507E-01
       N       E                     dE             d eps       ncg     rms          rms(c)
DAV:   1    -0.246536836739E+03    0.15168E-03   -0.32749E-01  4760   0.887E-01    0.157E-01
RMM:   2    -0.246537074397E+03   -0.23766E-03   -0.28837E-03  3966   0.902E-02    0.289E-02
RMM:   3    -0.246537110523E+03   -0.36126E-04   -0.16215E-04  2747   0.338E-02
  95 F= -.24653711E+03 E0= -.24653311E+03  d E =-.160034E-01
       N       E                     dE             d eps       ncg     rms          rms(c)
DAV:   1    -0.246537669614E+03   -0.59522E-03   -0.16388E-01  4824   0.630E-01    0.113E-01
RMM:   2    -0.246537800547E+03   -0.13093E-03   -0.13381E-03  3462   0.606E-02    0.636E-02
RMM:   3    -0.246537778145E+03    0.22401E-04   -0.12010E-04  2699   0.282E-02
  96 F= -.24653778E+03 E0= -.24653377E+03  d E =-.160228E-01
       N       E                     dE             d eps       ncg     rms          rms(c)
DAV:   1    -0.246535987510E+03    0.18130E-02   -0.32541E-01  4760   0.886E-01    0.158E-01
RMM:   2    -0.246536265675E+03   -0.27817E-03   -0.28597E-03  3791   0.881E-02    0.204E-02
RMM:   3    -0.246536269436E+03   -0.37611E-05   -0.13201E-04  2678   0.312E-02
  97 F= -.24653627E+03 E0= -.24653227E+03  d E =-.160145E-01
       N       E                     dE             d eps       ncg     rms          rms(c)
DAV:   1    -0.246536143130E+03    0.12255E-03   -0.16193E-01  4896   0.686E-01    0.108E-01
RMM:   2    -0.246536280161E+03   -0.13703E-03   -0.19253E-03  3566   0.708E-02    0.651E-02
RMM:   3    -0.246536266564E+03    0.13598E-04   -0.15766E-04  2742   0.294E-02
  98 F= -.24653627E+03 E0= -.24653226E+03  d E =-.160292E-01
       N       E                     dE             d eps       ncg     rms          rms(c)
DAV:   1    -0.246537502089E+03   -0.12219E-02   -0.32772E-01  4880   0.932E-01    0.162E-01
RMM:   2    -0.246537749191E+03   -0.24710E-03   -0.30519E-03  4010   0.953E-02    0.256E-02
RMM:   3    -0.246537744490E+03    0.47009E-05   -0.14269E-04  2719   0.326E-02
  99 F= -.24653774E+03 E0= -.24653374E+03  d E =-.160260E-01
       N       E                     dE             d eps       ncg     rms          rms(c)
DAV:   1    -0.246536109539E+03    0.16397E-02   -0.16378E-01  4908   0.662E-01    0.116E-01
RMM:   2    -0.246536229265E+03   -0.11973E-03   -0.14444E-03  3618   0.654E-02    0.634E-02
RMM:   3    -0.246536230126E+03   -0.86123E-06   -0.15884E-04  2761   0.304E-02
 100 F= -.24653623E+03 E0= -.24653224E+03  d E =-.159679E-01
       N       E                     dE             d eps       ncg     rms          rms(c)
DAV:   1    -0.246537679031E+03   -0.14498E-02   -0.32592E-01  4828   0.932E-01    0.157E-01
RMM:   2    -0.246537955511E+03   -0.27648E-03   -0.27202E-03  3976   0.915E-02    0.257E-02
RMM:   3    -0.246537958713E+03   -0.32018E-05   -0.13536E-04  2701   0.323E-02
 101 F= -.24653796E+03 E0= -.24653395E+03  d E =-.160337E-01
       N       E                     dE             d eps       ncg     rms          rms(c)
DAV:   1    -0.246535015997E+03    0.29395E-02   -0.17228E-01  4874   0.677E-01    0.157E-01
RMM:   2    -0.246534941064E+03    0.74933E-04   -0.30084E-03  3978   0.956E-02    0.906E-02
RMM:   3    -0.246534871570E+03    0.69494E-04   -0.28256E-04  2898   0.365E-02
 102 F= -.24653487E+03 E0= -.24653086E+03  d E =-.160411E-01
       N       E                     dE             d eps       ncg     rms          rms(c)
DAV:   1    -0.246534751975E+03    0.18909E-03   -0.37242E-01  4890   0.996E-01    0.271E-01
RMM:   2    -0.246533953361E+03    0.79861E-03   -0.12493E-02  4582   0.177E-01    0.425E-02
RMM:   3    -0.246533990029E+03   -0.36668E-04   -0.61239E-04  3251   0.560E-02
 103 F= -.24653399E+03 E0= -.24653000E+03  d E =-.159599E-01
