       N       E                     dE             d eps       ncg     rms          rms(c)
DAV:   1     0.352031077799E+04    0.35203E+04   -0.14343E+05  4824   0.117E+03
DAV:   2     0.191460103525E+03   -0.33289E+04   -0.30615E+04  4984   0.446E+02
DAV:   3    -0.243893358505E+03   -0.43535E+03   -0.40492E+03  6528   0.130E+02
DAV:   4    -0.277677922932E+03   -0.33785E+02   -0.30631E+02  6952   0.375E+01
DAV:   5    -0.278792484835E+03   -0.11146E+01   -0.10883E+01  6600   0.589E+00    0.278E+01
RMM:   6    -0.269974927472E+03    0.88176E+01   -0.13800E+01  5366   0.696E+00    0.224E+01
RMM:   7    -0.283148029964E+03   -0.13173E+02   -0.19327E+01  5369   0.765E+00    0.294E+01
RMM:   8    -0.271609450378E+03    0.11539E+02   -0.13794E+01  5320   0.656E+00    0.242E+01
RMM:   9    -0.255628375644E+03    0.15981E+02   -0.16432E+01  4883   0.102E+01    0.122E+01
RMM:  10    -0.254210874598E+03    0.14175E+01   -0.34880E+00  5793   0.336E+00    0.729E+00
RMM:  11    -0.253853298642E+03    0.35758E+00   -0.15798E+00  5026   0.267E+00    0.374E+00
RMM:  12    -0.253775894793E+03    0.77404E-01   -0.69228E-01  5132   0.183E+00    0.281E+00
RMM:  13    -0.253715012864E+03    0.60882E-01   -0.17925E-01  5264   0.886E-01    0.191E+00
RMM:  14    -0.253702455292E+03    0.12558E-01   -0.94209E-02  4834   0.643E-01    0.114E+00
RMM:  15    -0.253693496054E+03    0.89592E-02   -0.64795E-02  4844   0.594E-01    0.754E-01
RMM:  16    -0.253690876576E+03    0.26195E-02   -0.21763E-02  5382   0.303E-01    0.541E-01
RMM:  17    -0.253698148783E+03   -0.72722E-02   -0.14554E-02  4953   0.220E-01    0.434E-01
RMM:  18    -0.253698823947E+03   -0.67516E-03   -0.88690E-03  4855   0.181E-01    0.297E-01
RMM:  19    -0.253697862015E+03    0.96193E-03   -0.35864E-03  4816   0.134E-01    0.172E-01
RMM:  20    -0.253697498288E+03    0.36373E-03   -0.23209E-03  4849   0.102E-01    0.147E-01
RMM:  21    -0.253696931060E+03    0.56723E-03   -0.16751E-03  4682   0.889E-02    0.883E-02
RMM:  22    -0.253696608155E+03    0.32291E-03   -0.64492E-04  3748   0.542E-02    0.458E-02
RMM:  23    -0.253696521036E+03    0.87119E-04   -0.42113E-04  3248   0.453E-02
   1 F= -.25369652E+03 E0= -.25370411E+03  d E =0.303677E-01
       N       E                     dE             d eps       ncg     rms          rms(c)
DAV:   1    -0.253690530257E+03    0.60779E-02   -0.55150E-01  5048   0.133E+00    0.128E-01
RMM:   2    -0.253691266921E+03   -0.73666E-03   -0.75009E-03  4246   0.146E-01    0.121E-01
RMM:   3    -0.253691193791E+03    0.73131E-04   -0.34654E-04  3011   0.434E-02
   2 F= -.25369119E+03 E0= -.25369881E+03  d E =0.304752E-01
       N       E                     dE             d eps       ncg     rms          rms(c)
DAV:   1    -0.253690103427E+03    0.11635E-02   -0.22484E+00  4928   0.268E+00    0.253E-01
RMM:   2    -0.253691208185E+03   -0.11048E-02   -0.30459E-02  4774   0.299E-01    0.754E-02
RMM:   3    -0.253691370590E+03   -0.16240E-03   -0.14127E-03  3831   0.860E-02    0.375E-02
RMM:   4    -0.253691484816E+03   -0.11423E-03   -0.33370E-04  3072   0.391E-02    0.274E-02
RMM:   5    -0.253691615529E+03   -0.13071E-03   -0.17697E-04  2828   0.308E-02    0.162E-02
RMM:   6    -0.253691763861E+03   -0.14833E-03   -0.17610E-04  2839   0.298E-02    0.128E-02
RMM:   7    -0.253691794836E+03   -0.30975E-04   -0.45996E-05  2633   0.164E-02
   3 F= -.25369179E+03 E0= -.25369942E+03  d E =0.304976E-01
       N       E                     dE             d eps       ncg     rms          rms(c)
DAV:   1    -0.253691823035E+03   -0.59174E-04   -0.11134E+00  4936   0.189E+00    0.181E-01
RMM:   2    -0.253692598996E+03   -0.77596E-03   -0.13864E-02  4424   0.193E-01    0.114E-01
RMM:   3    -0.253692536672E+03    0.62324E-04   -0.59851E-04  3207   0.527E-02
   4 F= -.25369254E+03 E0= -.25370012E+03  d E =0.303202E-01
       N       E                     dE             d eps       ncg     rms          rms(c)
DAV:   1    -0.253689760114E+03    0.28389E-02   -0.22265E+00  4832   0.269E+00    0.234E-01
RMM:   2    -0.253691502800E+03   -0.17427E-02   -0.31363E-02  4728   0.295E-01    0.534E-02
RMM:   3    -0.253691715911E+03   -0.21311E-03   -0.14266E-03  3705   0.845E-02    0.276E-02
RMM:   4    -0.253691810807E+03   -0.94896E-04   -0.29640E-04  2992   0.338E-02
   5 F= -.25369181E+03 E0= -.25369942E+03  d E =0.304409E-01
       N       E                     dE             d eps       ncg     rms          rms(c)
DAV:   1    -0.253691629026E+03    0.86885E-04   -0.10940E+00  4832   0.190E+00    0.170E-01
RMM:   2    -0.253692750145E+03   -0.11211E-02   -0.14309E-02  4469   0.199E-01    0.116E-01
RMM:   3    -0.253692617173E+03    0.13297E-03   -0.67119E-04  3282   0.586E-02    0.859E-02
RMM:   4    -0.253692437521E+03    0.17965E-03   -0.80348E-04  3380   0.457E-02    0.242E-02
RMM:   5    -0.253692503653E+03   -0.66132E-04   -0.13055E-04  2732   0.317E-02
   6 F= -.25369250E+03 E0= -.25370012E+03  d E =0.304469E-01
       N       E                     dE             d eps       ncg     rms          rms(c)
DAV:   1    -0.253690324365E+03    0.21132E-02   -0.21791E+00  4800   0.277E+00    0.246E-01
RMM:   2    -0.253691880045E+03   -0.15557E-02   -0.30921E-02  4688   0.299E-01    0.267E-02
RMM:   3    -0.253692012879E+03   -0.13283E-03   -0.14161E-03  3699   0.843E-02    0.157E-02
RMM:   4    -0.253692039335E+03   -0.26456E-04   -0.30383E-04  2976   0.330E-02
   7 F= -.25369204E+03 E0= -.25369967E+03  d E =0.305053E-01
       N       E                     dE             d eps       ncg     rms          rms(c)
DAV:   1    -0.253691158302E+03    0.85458E-03   -0.10492E+00  4864   0.195E+00    0.167E-01
RMM:   2    -0.253692588134E+03   -0.14298E-02   -0.17063E-02  4656   0.227E-01    0.123E-01
RMM:   3    -0.253692540096E+03    0.48039E-04   -0.80092E-04  3299   0.676E-02
   8 F= -.25369254E+03 E0= -.25370015E+03  d E =0.304434E-01
       N       E                     dE             d eps       ncg     rms          rms(c)
DAV:   1    -0.253689177658E+03    0.34105E-02   -0.22242E+00  4800   0.272E+00    0.252E-01
RMM:   2    -0.253691287104E+03   -0.21094E-02   -0.35836E-02  4761   0.327E-01    0.531E-02
RMM:   3    -0.253691443724E+03   -0.15662E-03   -0.19346E-03  3972   0.106E-01    0.309E-02
RMM:   4    -0.253691457623E+03   -0.13899E-04   -0.46836E-04  3211   0.393E-02
   9 F= -.25369146E+03 E0= -.25369910E+03  d E =0.305504E-01
       N       E                     dE             d eps       ncg     rms          rms(c)
DAV:   1    -0.253690695524E+03    0.74820E-03   -0.10945E+00  4816   0.195E+00    0.181E-01
RMM:   2    -0.253691608463E+03   -0.91294E-03   -0.14638E-02  4647   0.206E-01    0.127E-01
RMM:   3    -0.253691549498E+03    0.58965E-04   -0.61172E-04  3174   0.617E-02
  10 F= -.25369155E+03 E0= -.25369918E+03  d E =0.305181E-01
       N       E                     dE             d eps       ncg     rms          rms(c)
DAV:   1    -0.253689461137E+03    0.21473E-02   -0.22648E+00  4816   0.273E+00    0.253E-01
RMM:   2    -0.253691101808E+03   -0.16407E-02   -0.29364E-02  4745   0.295E-01    0.655E-02
RMM:   3    -0.253691154241E+03   -0.52432E-04   -0.11938E-03  3627   0.829E-02    0.508E-02
RMM:   4    -0.253691090228E+03    0.64013E-04   -0.38402E-04  3072   0.407E-02
  11 F= -.25369109E+03 E0= -.25369871E+03  d E =0.304897E-01
       N       E                     dE             d eps       ncg     rms          rms(c)
DAV:   1    -0.253692166969E+03   -0.10127E-02   -0.11024E+00  4816   0.194E+00    0.179E-01
RMM:   2    -0.253693183436E+03   -0.10165E-02   -0.15223E-02  4641   0.211E-01    0.116E-01
RMM:   3    -0.253693118976E+03    0.64460E-04   -0.73474E-04  3285   0.648E-02
  12 F= -.25369312E+03 E0= -.25370071E+03  d E =0.303468E-01
       N       E                     dE             d eps       ncg     rms          rms(c)
DAV:   1    -0.253690813826E+03    0.23696E-02   -0.21839E+00  4808   0.283E+00    0.243E-01
RMM:   2    -0.253692678093E+03   -0.18643E-02   -0.35953E-02  4777   0.326E-01    0.557E-02
RMM:   3    -0.253692853656E+03   -0.17556E-03   -0.20070E-03  4012   0.120E-01    0.482E-02
RMM:   4    -0.253692957228E+03   -0.10357E-03   -0.45344E-04  3244   0.412E-02    0.294E-02
RMM:   5    -0.253693006564E+03   -0.49336E-04   -0.13700E-04  2756   0.257E-02
  13 F= -.25369301E+03 E0= -.25370063E+03  d E =0.304845E-01
       N       E                     dE             d eps       ncg     rms          rms(c)
DAV:   1    -0.253691288453E+03    0.16688E-02   -0.11620E+00  4848   0.206E+00    0.174E-01
RMM:   2    -0.253692795025E+03   -0.15066E-02   -0.21625E-02  4714   0.256E-01    0.105E-01
RMM:   3    -0.253692827619E+03   -0.32593E-04   -0.12672E-03  3584   0.955E-02    0.871E-02
RMM:   4    -0.253692730885E+03    0.96733E-04   -0.86789E-04  3576   0.528E-02
  14 F= -.25369273E+03 E0= -.25370036E+03  d E =0.305051E-01
       N       E                     dE             d eps       ncg     rms          rms(c)
DAV:   1    -0.253690125401E+03    0.27022E-02   -0.21664E+00  4800   0.280E+00    0.233E-01
RMM:   2    -0.253692193831E+03   -0.20684E-02   -0.32170E-02  4787   0.338E-01    0.325E-02
RMM:   3    -0.253692380097E+03   -0.18627E-03   -0.19149E-03  4083   0.121E-01    0.248E-02
RMM:   4    -0.253692416533E+03   -0.36436E-04   -0.43277E-04  3138   0.375E-02
  15 F= -.25369242E+03 E0= -.25370005E+03  d E =0.305366E-01
       N       E                     dE             d eps       ncg     rms          rms(c)
DAV:   1    -0.253691471665E+03    0.90843E-03   -0.10892E+00  4800   0.193E+00    0.177E-01
RMM:   2    -0.253692683201E+03   -0.12115E-02   -0.15573E-02  4719   0.228E-01    0.122E-01
RMM:   3    -0.253692564794E+03    0.11841E-03   -0.10676E-03  3622   0.774E-02    0.843E-02
RMM:   4    -0.253692500924E+03    0.63870E-04   -0.78945E-04  3479   0.474E-02
  16 F= -.25369250E+03 E0= -.25370015E+03  d E =0.306072E-01
       N       E                     dE             d eps       ncg     rms          rms(c)
DAV:   1    -0.253689984385E+03    0.25804E-02   -0.21690E+00  4800   0.274E+00    0.250E-01
RMM:   2    -0.253691682027E+03   -0.16976E-02   -0.32524E-02  4791   0.329E-01    0.435E-02
RMM:   3    -0.253691836828E+03   -0.15480E-03   -0.18855E-03  4056   0.110E-01    0.201E-02
RMM:   4    -0.253691866960E+03   -0.30132E-04   -0.35076E-04  3061   0.343E-02
  17 F= -.25369187E+03 E0= -.25369944E+03  d E =0.303062E-01
       N       E                     dE             d eps       ncg     rms          rms(c)
DAV:   1    -0.253693394067E+03   -0.15572E-02   -0.10504E+00  4800   0.195E+00    0.177E-01
RMM:   2    -0.253694591635E+03   -0.11976E-02   -0.15597E-02  4726   0.238E-01    0.109E-01
RMM:   3    -0.253694602427E+03   -0.10792E-04   -0.11351E-03  3744   0.782E-02    0.744E-02
RMM:   4    -0.253694473006E+03    0.12942E-03   -0.47002E-04  3176   0.477E-02    0.320E-02
RMM:   5    -0.253694458392E+03    0.14614E-04   -0.16565E-04  2762   0.297E-02
  18 F= -.25369446E+03 E0= -.25370205E+03  d E =0.303820E-01
       N       E                     dE             d eps       ncg     rms          rms(c)
DAV:   1    -0.253692808784E+03    0.16642E-02   -0.19928E+00  4800   0.275E+00    0.265E-01
RMM:   2    -0.253694240191E+03   -0.14314E-02   -0.28750E-02  4803   0.369E-01    0.331E-02
RMM:   3    -0.253694438326E+03   -0.19814E-03   -0.22444E-03  4620   0.105E-01    0.196E-02
RMM:   4    -0.253694458944E+03   -0.20618E-04   -0.22726E-04  2892   0.305E-02
  19 F= -.25369446E+03 E0= -.25370210E+03  d E =0.305830E-01
       N       E                     dE             d eps       ncg     rms          rms(c)
DAV:   1    -0.253690456221E+03    0.39821E-02   -0.10379E+00  4800   0.199E+00    0.177E-01
RMM:   2    -0.253691780943E+03   -0.13247E-02   -0.17748E-02  4755   0.253E-01    0.117E-01
RMM:   3    -0.253691822743E+03   -0.41800E-04   -0.10684E-03  3594   0.804E-02    0.102E-01
RMM:   4    -0.253691641089E+03    0.18165E-03   -0.10378E-03  3761   0.539E-02    0.433E-02
RMM:   5    -0.253691658740E+03   -0.17651E-04   -0.10515E-04  2639   0.290E-02
  20 F= -.25369166E+03 E0= -.25369931E+03  d E =0.306130E-01
       N       E                     dE             d eps       ncg     rms          rms(c)
DAV:   1    -0.253689587414E+03    0.20537E-02   -0.21820E+00  4800   0.274E+00    0.251E-01
RMM:   2    -0.253691421770E+03   -0.18344E-02   -0.32793E-02  4798   0.328E-01    0.296E-02
RMM:   3    -0.253691606575E+03   -0.18480E-03   -0.16441E-03  3903   0.106E-01    0.195E-02
RMM:   4    -0.253691634317E+03   -0.27742E-04   -0.34427E-04  3043   0.339E-02
  21 F= -.25369163E+03 E0= -.25369922E+03  d E =0.303262E-01
       N       E                     dE             d eps       ncg     rms          rms(c)
DAV:   1    -0.253691491710E+03    0.11486E-03   -0.10857E+00  4800   0.197E+00    0.171E-01
RMM:   2    -0.253692741192E+03   -0.12495E-02   -0.16168E-02  4718   0.230E-01    0.108E-01
RMM:   3    -0.253692705978E+03    0.35214E-04   -0.87893E-04  3414   0.779E-02
  22 F= -.25369271E+03 E0= -.25370029E+03  d E =0.303446E-01
       N       E                     dE             d eps       ncg     rms          rms(c)
DAV:   1    -0.253690410415E+03    0.23308E-02   -0.21747E+00  4800   0.280E+00    0.237E-01
RMM:   2    -0.253692967304E+03   -0.25569E-02   -0.37569E-02  4789   0.359E-01    0.415E-02
RMM:   3    -0.253693188496E+03   -0.22119E-03   -0.22622E-03  4182   0.127E-01    0.265E-02
RMM:   4    -0.253693223496E+03   -0.35000E-04   -0.47617E-04  3203   0.378E-02
  23 F= -.25369322E+03 E0= -.25370087E+03  d E =0.305713E-01
       N       E                     dE             d eps       ncg     rms          rms(c)
DAV:   1    -0.253693948717E+03   -0.76022E-03   -0.10168E+00  4800   0.197E+00    0.184E-01
RMM:   2    -0.253694865070E+03   -0.91635E-03   -0.14656E-02  4759   0.248E-01    0.109E-01
RMM:   3    -0.253694857211E+03    0.78597E-05   -0.12060E-03  3968   0.796E-02    0.611E-02
RMM:   4    -0.253694790043E+03    0.67168E-04   -0.43469E-04  3125   0.436E-02
  24 F= -.25369479E+03 E0= -.25370238E+03  d E =0.303467E-01
       N       E                     dE             d eps       ncg     rms          rms(c)
DAV:   1    -0.253692854642E+03    0.20026E-02   -0.19898E+00  4800   0.275E+00    0.264E-01
RMM:   2    -0.253694285510E+03   -0.14309E-02   -0.28005E-02  4809   0.361E-01    0.302E-02
RMM:   3    -0.253694483072E+03   -0.19756E-03   -0.20420E-03  4528   0.107E-01    0.196E-02
RMM:   4    -0.253694505948E+03   -0.22876E-04   -0.25566E-04  2933   0.305E-02
  25 F= -.25369451E+03 E0= -.25370215E+03  d E =0.305788E-01
       N       E                     dE             d eps       ncg     rms          rms(c)
DAV:   1    -0.253690654035E+03    0.38290E-02   -0.10860E+00  4800   0.203E+00    0.186E-01
RMM:   2    -0.253691972040E+03   -0.13180E-02   -0.18727E-02  4761   0.256E-01    0.127E-01
RMM:   3    -0.253692019557E+03   -0.47516E-04   -0.99353E-04  3563   0.823E-02
  26 F= -.25369202E+03 E0= -.25369962E+03  d E =0.304110E-01
       N       E                     dE             d eps       ncg     rms          rms(c)
DAV:   1    -0.253689641509E+03    0.23305E-02   -0.22572E+00  4800   0.279E+00    0.245E-01
RMM:   2    -0.253691387570E+03   -0.17461E-02   -0.30565E-02  4755   0.309E-01    0.776E-02
RMM:   3    -0.253691328974E+03    0.58596E-04   -0.15900E-03  3935   0.936E-02    0.371E-02
RMM:   4    -0.253691330009E+03   -0.10352E-05   -0.29218E-04  2963   0.337E-02
  27 F= -.25369133E+03 E0= -.25369896E+03  d E =0.305077E-01
       N       E                     dE             d eps       ncg     rms          rms(c)
DAV:   1    -0.253691411352E+03   -0.82377E-04   -0.10912E+00  4808   0.195E+00    0.184E-01
RMM:   2    -0.253692209491E+03   -0.79814E-03   -0.15261E-02  4644   0.211E-01    0.116E-01
RMM:   3    -0.253692137024E+03    0.72467E-04   -0.85885E-04  3356   0.677E-02
  28 F= -.25369214E+03 E0= -.25369976E+03  d E =0.304901E-01
       N       E                     dE             d eps       ncg     rms          rms(c)
DAV:   1    -0.253689549447E+03    0.26600E-02   -0.22069E+00  4800   0.273E+00    0.253E-01
RMM:   2    -0.253691445094E+03   -0.18956E-02   -0.34265E-02  4773   0.320E-01    0.693E-02
RMM:   3    -0.253691546625E+03   -0.10153E-03   -0.17216E-03  3919   0.104E-01    0.361E-02
RMM:   4    -0.253691556945E+03   -0.10320E-04   -0.41965E-04  3080   0.383E-02
  29 F= -.25369156E+03 E0= -.25369918E+03  d E =0.304987E-01
       N       E                     dE             d eps       ncg     rms          rms(c)
DAV:   1    -0.253692507366E+03   -0.96074E-03   -0.10863E+00  4800   0.196E+00    0.181E-01
RMM:   2    -0.253693378740E+03   -0.87137E-03   -0.14292E-02  4647   0.214E-01    0.114E-01
RMM:   3    -0.253693293179E+03    0.85561E-04   -0.77331E-04  3368   0.688E-02
  30 F= -.25369329E+03 E0= -.25370089E+03  d E =0.304018E-01
       N       E                     dE             d eps       ncg     rms          rms(c)
DAV:   1    -0.253690886627E+03    0.24921E-02   -0.21790E+00  4800   0.282E+00    0.247E-01
RMM:   2    -0.253692764840E+03   -0.18782E-02   -0.32295E-02  4765   0.316E-01    0.914E-02
RMM:   3    -0.253692823347E+03   -0.58507E-04   -0.20779E-03  4050   0.118E-01    0.516E-02
RMM:   4    -0.253692863805E+03   -0.40458E-04   -0.57406E-04  3330   0.418E-02
  31 F= -.25369286E+03 E0= -.25370051E+03  d E =0.305739E-01
       N       E                     dE             d eps       ncg     rms          rms(c)
DAV:   1    -0.253690437677E+03    0.23857E-02   -0.11390E+00  4800   0.201E+00    0.174E-01
RMM:   2    -0.253691891055E+03   -0.14534E-02   -0.19862E-02  4609   0.234E-01    0.112E-01
RMM:   3    -0.253691938053E+03   -0.46998E-04   -0.10039E-03  3338   0.732E-02    0.964E-02
RMM:   4    -0.253691800588E+03    0.13747E-03   -0.83139E-04  3469   0.491E-02    0.382E-02
RMM:   5    -0.253691780240E+03    0.20349E-04   -0.10750E-04  2654   0.290E-02
  32 F= -.25369178E+03 E0= -.25369941E+03  d E =0.305201E-01
       N       E                     dE             d eps       ncg     rms          rms(c)
DAV:   1    -0.253689622710E+03    0.21779E-02   -0.21688E+00  4800   0.262E+00    0.228E-01
RMM:   2    -0.253691800857E+03   -0.21781E-02   -0.31353E-02  4622   0.290E-01    0.347E-02
RMM:   3    -0.253691898507E+03   -0.97649E-04   -0.14806E-03  3585   0.865E-02    0.184E-02
RMM:   4    -0.253691923703E+03   -0.25197E-04   -0.29027E-04  2952   0.323E-02
  33 F= -.25369192E+03 E0= -.25369953E+03  d E =0.304420E-01
       N       E                     dE             d eps       ncg     rms          rms(c)
DAV:   1    -0.253691055626E+03    0.84288E-03   -0.10797E+00  4816   0.184E+00    0.158E-01
RMM:   2    -0.253692436643E+03   -0.13810E-02   -0.16416E-02  4390   0.200E-01    0.101E-01
RMM:   3    -0.253692393494E+03    0.43149E-04   -0.88025E-04  3255   0.639E-02
  34 F= -.25369239E+03 E0= -.25370001E+03  d E =0.304679E-01
       N       E                     dE             d eps       ncg     rms          rms(c)
DAV:   1    -0.253689968274E+03    0.24684E-02   -0.21678E+00  4824   0.266E+00    0.213E-01
RMM:   2    -0.253692698024E+03   -0.27298E-02   -0.35743E-02  4682   0.304E-01    0.559E-02
RMM:   3    -0.253692803666E+03   -0.10564E-03   -0.18778E-03  3721   0.980E-02    0.330E-02
RMM:   4    -0.253692840507E+03   -0.36842E-04   -0.36610E-04  3070   0.351E-02
  35 F= -.25369284E+03 E0= -.25370046E+03  d E =0.304807E-01
       N       E                     dE             d eps       ncg     rms          rms(c)
DAV:   1    -0.253691200738E+03    0.16029E-02   -0.10731E+00  4816   0.190E+00    0.167E-01
RMM:   2    -0.253692457907E+03   -0.12572E-02   -0.15937E-02  4549   0.213E-01    0.106E-01
RMM:   3    -0.253692371884E+03    0.86024E-04   -0.88002E-04  3440   0.703E-02
  36 F= -.25369237E+03 E0= -.25369999E+03  d E =0.304577E-01
       N       E                     dE             d eps       ncg     rms          rms(c)
DAV:   1    -0.253689751617E+03    0.27063E-02   -0.21800E+00  4816   0.274E+00    0.226E-01
RMM:   2    -0.253692160560E+03   -0.24089E-02   -0.33137E-02  4735   0.308E-01    0.576E-02
RMM:   3    -0.253692296026E+03   -0.13547E-03   -0.17305E-03  3885   0.911E-02    0.345E-02
RMM:   4    -0.253692281356E+03    0.14671E-04   -0.47799E-04  3186   0.409E-02
  37 F= -.25369228E+03 E0= -.25369989E+03  d E =0.304376E-01
       N       E                     dE             d eps       ncg     rms          rms(c)
DAV:   1    -0.253694213803E+03   -0.19178E-02   -0.62860E-01  4872   0.148E+00    0.170E-01
RMM:   2    -0.253694817140E+03   -0.60334E-03   -0.11172E-02  4478   0.179E-01    0.903E-02
RMM:   3    -0.253694766529E+03    0.50610E-04   -0.99877E-04  3516   0.609E-02
  38 F= -.25369477E+03 E0= -.25370241E+03  d E =0.305928E-01
       N       E                     dE             d eps       ncg     rms          rms(c)
DAV:   1    -0.253694728076E+03    0.89063E-04   -0.36417E-01  4920   0.940E-01    0.254E-01
RMM:   2    -0.253694058598E+03    0.66948E-03   -0.11999E-02  4614   0.173E-01    0.411E-02
RMM:   3    -0.253694125072E+03   -0.66474E-04   -0.65515E-04  3323   0.522E-02
  39 F= -.25369413E+03 E0= -.25370174E+03  d E =0.304640E-01
       N       E                     dE             d eps       ncg     rms          rms(c)
DAV:   1    -0.253696908225E+03   -0.28496E-02   -0.17551E-01  4888   0.657E-01    0.160E-01
RMM:   2    -0.253696758699E+03    0.14953E-03   -0.33101E-03  3935   0.907E-02    0.631E-02
RMM:   3    -0.253696757325E+03    0.13738E-05   -0.32491E-04  2995   0.364E-02
  40 F= -.25369676E+03 E0= -.25370437E+03  d E =0.304644E-01
       N       E                     dE             d eps       ncg     rms          rms(c)
DAV:   1    -0.253695979284E+03    0.77941E-03   -0.33281E-01  4896   0.899E-01    0.163E-01
RMM:   2    -0.253696263518E+03   -0.28423E-03   -0.30524E-03  3910   0.923E-02    0.326E-02
RMM:   3    -0.253696250638E+03    0.12880E-04   -0.17206E-04  2804   0.316E-02
  41 F= -.25369625E+03 E0= -.25370387E+03  d E =0.304699E-01
       N       E                     dE             d eps       ncg     rms          rms(c)
DAV:   1    -0.253695740455E+03    0.52306E-03   -0.16691E-01  4944   0.638E-01    0.122E-01
RMM:   2    -0.253695879731E+03   -0.13928E-03   -0.15764E-03  3536   0.667E-02    0.684E-02
RMM:   3    -0.253695856206E+03    0.23525E-04   -0.24349E-04  2890   0.341E-02
  42 F= -.25369586E+03 E0= -.25370345E+03  d E =0.303891E-01
       N       E                     dE             d eps       ncg     rms          rms(c)
DAV:   1    -0.253696029760E+03   -0.15003E-03   -0.34502E-01  4832   0.911E-01    0.199E-01
RMM:   2    -0.253695987830E+03    0.41930E-04   -0.49685E-03  4121   0.111E-01    0.225E-02
RMM:   3    -0.253695990204E+03   -0.23740E-05   -0.23772E-04  2867   0.358E-02
  43 F= -.25369599E+03 E0= -.25370362E+03  d E =0.305092E-01
       N       E                     dE             d eps       ncg     rms          rms(c)
DAV:   1    -0.253696350478E+03   -0.36265E-03   -0.17505E-01  4856   0.681E-01    0.150E-01
RMM:   2    -0.253696310483E+03    0.39995E-04   -0.25888E-03  3810   0.877E-02    0.782E-02
RMM:   3    -0.253696269682E+03    0.40800E-04   -0.36884E-04  3049   0.396E-02
  44 F= -.25369627E+03 E0= -.25370389E+03  d E =0.304728E-01
       N       E                     dE             d eps       ncg     rms          rms(c)
DAV:   1    -0.253695561072E+03    0.74941E-03   -0.34705E-01  4808   0.912E-01    0.202E-01
RMM:   2    -0.253695373047E+03    0.18803E-03   -0.59198E-03  4326   0.122E-01    0.426E-02
RMM:   3    -0.253695459077E+03   -0.86030E-04   -0.35480E-04  3079   0.422E-02
  45 F= -.25369546E+03 E0= -.25370309E+03  d E =0.305063E-01
       N       E                     dE             d eps       ncg     rms          rms(c)
DAV:   1    -0.253695459459E+03   -0.86412E-04   -0.18102E-01  4880   0.659E-01    0.191E-01
RMM:   2    -0.253695066486E+03    0.39297E-03   -0.43862E-03  4063   0.109E-01    0.835E-02
RMM:   3    -0.253694995662E+03    0.70824E-04   -0.66242E-04  3294   0.431E-02
  46 F= -.25369500E+03 E0= -.25370261E+03  d E =0.304571E-01
       N       E                     dE             d eps       ncg     rms          rms(c)
DAV:   1    -0.253695697620E+03   -0.63113E-03   -0.36040E-01  4904   0.928E-01    0.241E-01
RMM:   2    -0.253695110196E+03    0.58742E-03   -0.83145E-03  4381   0.141E-01    0.272E-02
RMM:   3    -0.253695155577E+03   -0.45381E-04   -0.43905E-04  3125   0.448E-02
  47 F= -.25369516E+03 E0= -.25370277E+03  d E =0.304463E-01
       N       E                     dE             d eps       ncg     rms          rms(c)
DAV:   1    -0.253696390132E+03   -0.12799E-02   -0.18161E-01  4920   0.659E-01    0.188E-01
RMM:   2    -0.253696023455E+03    0.36668E-03   -0.50682E-03  4150   0.113E-01    0.654E-02
RMM:   3    -0.253696024050E+03   -0.59525E-06   -0.46032E-04  3176   0.439E-02
  48 F= -.25369602E+03 E0= -.25370363E+03  d E =0.304085E-01
       N       E                     dE             d eps       ncg     rms          rms(c)
DAV:   1    -0.253695986384E+03    0.37071E-04   -0.34413E-01  4848   0.909E-01    0.198E-01
RMM:   2    -0.253695957279E+03    0.29105E-04   -0.46953E-03  4061   0.110E-01    0.245E-02
RMM:   3    -0.253695947308E+03    0.99713E-05   -0.26762E-04  2908   0.374E-02
  49 F= -.25369595E+03 E0= -.25370357E+03  d E =0.304982E-01
       N       E                     dE             d eps       ncg     rms          rms(c)
DAV:   1    -0.253696013350E+03   -0.56071E-04   -0.17103E-01  4896   0.665E-01    0.143E-01
RMM:   2    -0.253696077336E+03   -0.63986E-04   -0.26321E-03  3778   0.833E-02    0.790E-02
RMM:   3    -0.253696011850E+03    0.65486E-04   -0.49564E-04  3088   0.420E-02
  50 F= -.25369601E+03 E0= -.25370363E+03  d E =0.304593E-01
       N       E                     dE             d eps       ncg     rms          rms(c)
DAV:   1    -0.253695657758E+03    0.41958E-03   -0.34301E-01  4800   0.846E-01    0.206E-01
RMM:   2    -0.253695492770E+03    0.16499E-03   -0.61066E-03  4287   0.118E-01    0.311E-02
RMM:   3    -0.253695492775E+03   -0.44529E-08   -0.31291E-04  2922   0.420E-02
  51 F= -.25369549E+03 E0= -.25370311E+03  d E =0.304609E-01
       N       E                     dE             d eps       ncg     rms          rms(c)
DAV:   1    -0.253694793667E+03    0.69910E-03   -0.16421E-01  4808   0.584E-01    0.117E-01
RMM:   2    -0.253694946838E+03   -0.15317E-03   -0.14637E-03  3429   0.631E-02    0.778E-02
RMM:   3    -0.253694929002E+03    0.17836E-04   -0.38915E-04  3008   0.370E-02
  52 F= -.25369493E+03 E0= -.25370253E+03  d E =0.304182E-01
       N       E                     dE             d eps       ncg     rms          rms(c)
DAV:   1    -0.253694804458E+03    0.14238E-03   -0.36039E-01  4816   0.874E-01    0.254E-01
RMM:   2    -0.253694130318E+03    0.67414E-03   -0.10444E-02  4494   0.151E-01    0.272E-02
RMM:   3    -0.253694173013E+03   -0.42695E-04   -0.50312E-04  3101   0.524E-02
  53 F= -.25369417E+03 E0= -.25370180E+03  d E =0.305187E-01
       N       E                     dE             d eps       ncg     rms          rms(c)
DAV:   1    -0.253696715302E+03   -0.25850E-02   -0.17251E-01  4856   0.599E-01    0.156E-01
RMM:   2    -0.253696567319E+03    0.14798E-03   -0.34168E-03  3898   0.881E-02    0.600E-02
RMM:   3    -0.253696572524E+03   -0.52052E-05   -0.24216E-04  2858   0.370E-02
  54 F= -.25369657E+03 E0= -.25370421E+03  d E =0.305661E-01
       N       E                     dE             d eps       ncg     rms          rms(c)
DAV:   1    -0.253696308784E+03    0.25854E-03   -0.33048E-01  4800   0.828E-01    0.162E-01
RMM:   2    -0.253696560899E+03   -0.25212E-03   -0.28999E-03  3856   0.892E-02    0.239E-02
RMM:   3    -0.253696562804E+03   -0.19050E-05   -0.15950E-04  2732   0.324E-02
  55 F= -.25369656E+03 E0= -.25370419E+03  d E =0.305022E-01
       N       E                     dE             d eps       ncg     rms          rms(c)
DAV:   1    -0.253696029954E+03    0.53095E-03   -0.16621E-01  4800   0.657E-01    0.128E-01
RMM:   2    -0.253696176060E+03   -0.14611E-03   -0.19955E-03  3808   0.803E-02    0.737E-02
RMM:   3    -0.253696121870E+03    0.54190E-04   -0.62725E-04  3201   0.418E-02
  56 F= -.25369612E+03 E0= -.25370374E+03  d E =0.304867E-01
       N       E                     dE             d eps       ncg     rms          rms(c)
DAV:   1    -0.253695729988E+03    0.44607E-03   -0.34102E-01  4800   0.928E-01    0.208E-01
RMM:   2    -0.253695405718E+03    0.32427E-03   -0.63374E-03  4392   0.125E-01    0.303E-02
RMM:   3    -0.253695419738E+03   -0.14021E-04   -0.26462E-04  2862   0.450E-02
  57 F= -.25369542E+03 E0= -.25370303E+03  d E =0.304451E-01
       N       E                     dE             d eps       ncg     rms          rms(c)
DAV:   1    -0.253695886059E+03   -0.48034E-03   -0.18172E-01  4880   0.681E-01    0.190E-01
RMM:   2    -0.253695450106E+03    0.43595E-03   -0.42718E-03  4188   0.112E-01    0.792E-02
RMM:   3    -0.253695437004E+03    0.13103E-04   -0.84885E-04  3444   0.492E-02
  58 F= -.25369544E+03 E0= -.25370305E+03  d E =0.304321E-01
       N       E                     dE             d eps       ncg     rms          rms(c)
DAV:   1    -0.253695466484E+03   -0.16378E-04   -0.34868E-01  4800   0.934E-01    0.227E-01
RMM:   2    -0.253694980712E+03    0.48577E-03   -0.69408E-03  4414   0.138E-01    0.263E-02
RMM:   3    -0.253695011369E+03   -0.30657E-04   -0.46931E-04  3089   0.496E-02
  59 F= -.25369501E+03 E0= -.25370263E+03  d E =0.304671E-01
       N       E                     dE             d eps       ncg     rms          rms(c)
DAV:   1    -0.253696280169E+03   -0.12995E-02   -0.17743E-01  4904   0.679E-01    0.180E-01
RMM:   2    -0.253695832478E+03    0.44769E-03   -0.46874E-03  4266   0.108E-01    0.628E-02
RMM:   3    -0.253695889837E+03   -0.57359E-04   -0.38512E-04  3011   0.460E-02
  60 F= -.25369589E+03 E0= -.25370350E+03  d E =0.304367E-01
       N       E                     dE             d eps       ncg     rms          rms(c)
DAV:   1    -0.253696249279E+03   -0.41680E-03   -0.33347E-01  4824   0.924E-01    0.193E-01
RMM:   2    -0.253696090762E+03    0.15852E-03   -0.48321E-03  4293   0.118E-01    0.225E-02
RMM:   3    -0.253696120606E+03   -0.29844E-04   -0.21891E-04  2807   0.418E-02
  61 F= -.25369612E+03 E0= -.25370374E+03  d E =0.304636E-01
       N       E                     dE             d eps       ncg     rms          rms(c)
DAV:   1    -0.253696250712E+03   -0.15995E-03   -0.16546E-01  4864   0.701E-01    0.133E-01
RMM:   2    -0.253696269992E+03   -0.19281E-04   -0.25012E-03  3935   0.848E-02    0.688E-02
RMM:   3    -0.253696293047E+03   -0.23055E-04   -0.57846E-04  3170   0.422E-02
  62 F= -.25369629E+03 E0= -.25370393E+03  d E =0.305327E-01
       N       E                     dE             d eps       ncg     rms          rms(c)
DAV:   1    -0.253695707298E+03    0.56269E-03   -0.33677E-01  4800   0.933E-01    0.196E-01
RMM:   2    -0.253695532961E+03    0.17434E-03   -0.46112E-03  4356   0.114E-01    0.259E-02
RMM:   3    -0.253695575700E+03   -0.42739E-04   -0.24364E-04  2884   0.405E-02
  63 F= -.25369558E+03 E0= -.25370319E+03  d E =0.304643E-01
       N       E                     dE             d eps       ncg     rms          rms(c)
DAV:   1    -0.253695717278E+03   -0.18432E-03   -0.17758E-01  4808   0.680E-01    0.195E-01
RMM:   2    -0.253695173536E+03    0.54374E-03   -0.43087E-03  4311   0.113E-01    0.823E-02
RMM:   3    -0.253695196022E+03   -0.22486E-04   -0.70109E-04  3358   0.476E-02
  64 F= -.25369520E+03 E0= -.25370280E+03  d E =0.304355E-01
       N       E                     dE             d eps       ncg     rms          rms(c)
DAV:   1    -0.253695251370E+03   -0.77835E-04   -0.35587E-01  4800   0.969E-01    0.262E-01
RMM:   2    -0.253694227462E+03    0.10239E-02   -0.10043E-02  4631   0.160E-01    0.396E-02
RMM:   3    -0.253694284113E+03   -0.56651E-04   -0.46058E-04  3115   0.538E-02
  65 F= -.25369428E+03 E0= -.25370191E+03  d E =0.304956E-01
       N       E                     dE             d eps       ncg     rms          rms(c)
DAV:   1    -0.253696930318E+03   -0.27029E-02   -0.17554E-01  4808   0.674E-01    0.183E-01
RMM:   2    -0.253696525104E+03    0.40521E-03   -0.40010E-03  4200   0.108E-01    0.701E-02
RMM:   3    -0.253696458856E+03    0.66248E-04   -0.56120E-04  3262   0.484E-02
  66 F= -.25369646E+03 E0= -.25370407E+03  d E =0.304333E-01
       N       E                     dE             d eps       ncg     rms          rms(c)
DAV:   1    -0.253696176797E+03    0.34831E-03   -0.32511E-01  4800   0.929E-01    0.186E-01
RMM:   2    -0.253696303075E+03   -0.12628E-03   -0.42523E-03  4366   0.117E-01    0.307E-02
RMM:   3    -0.253696292817E+03    0.10258E-04   -0.20820E-04  2830   0.380E-02
  67 F= -.25369629E+03 E0= -.25370392E+03  d E =0.305244E-01
       N       E                     dE             d eps       ncg     rms          rms(c)
DAV:   1    -0.253694634376E+03    0.16687E-02   -0.16906E-01  4920   0.702E-01    0.161E-01
RMM:   2    -0.253694618405E+03    0.15971E-04   -0.39155E-03  4267   0.112E-01    0.962E-02
RMM:   3    -0.253694526889E+03    0.91516E-04   -0.66775E-04  3259   0.459E-02
  68 F= -.25369453E+03 E0= -.25370216E+03  d E =0.305471E-01
       N       E                     dE             d eps       ncg     rms          rms(c)
DAV:   1    -0.253694653471E+03   -0.35066E-04   -0.36637E-01  4800   0.974E-01    0.275E-01
RMM:   2    -0.253693592393E+03    0.10611E-02   -0.11379E-02  4651   0.171E-01    0.404E-02
RMM:   3    -0.253693627734E+03   -0.35341E-04   -0.57408E-04  3255   0.583E-02
  69 F= -.25369363E+03 E0= -.25370127E+03  d E =0.305524E-01
       N       E                     dE             d eps       ncg     rms          rms(c)
DAV:   1    -0.253696815290E+03   -0.32229E-02   -0.17802E-01  4800   0.673E-01    0.188E-01
RMM:   2    -0.253696321626E+03    0.49366E-03   -0.44627E-03  4310   0.110E-01    0.632E-02
RMM:   3    -0.253696322097E+03   -0.47126E-06   -0.37907E-04  3013   0.416E-02
  70 F= -.25369632E+03 E0= -.25370394E+03  d E =0.304614E-01
       N       E                     dE             d eps       ncg     rms          rms(c)
DAV:   1    -0.253696267060E+03    0.54566E-04   -0.33062E-01  4800   0.916E-01    0.168E-01
RMM:   2    -0.253696466717E+03   -0.19966E-03   -0.31564E-03  4169   0.991E-02    0.318E-02
RMM:   3    -0.253696465192E+03    0.15253E-05   -0.19414E-04  2809   0.354E-02
  71 F= -.25369647E+03 E0= -.25370408E+03  d E =0.304549E-01
       N       E                     dE             d eps       ncg     rms          rms(c)
DAV:   1    -0.253696990225E+03   -0.52351E-03   -0.16269E-01  4872   0.649E-01    0.134E-01
RMM:   2    -0.253697021573E+03   -0.31348E-04   -0.18860E-03  3849   0.776E-02    0.661E-02
RMM:   3    -0.253697036268E+03   -0.14696E-04   -0.32060E-04  2977   0.399E-02
  72 F= -.25369704E+03 E0= -.25370464E+03  d E =0.304015E-01
       N       E                     dE             d eps       ncg     rms          rms(c)
DAV:   1    -0.253695882804E+03    0.11388E-02   -0.32266E-01  4800   0.918E-01    0.181E-01
RMM:   2    -0.253696027599E+03   -0.14479E-03   -0.36127E-03  4237   0.106E-01    0.209E-02
RMM:   3    -0.253696044345E+03   -0.16746E-04   -0.17413E-04  2771   0.366E-02
  73 F= -.25369604E+03 E0= -.25370367E+03  d E =0.305134E-01
       N       E                     dE             d eps       ncg     rms          rms(c)
DAV:   1    -0.253694676829E+03    0.13508E-02   -0.16899E-01  4800   0.698E-01    0.149E-01
RMM:   2    -0.253694705357E+03   -0.28528E-04   -0.30132E-03  4051   0.976E-02    0.858E-02
RMM:   3    -0.253694683591E+03    0.21766E-04   -0.65994E-04  3282   0.462E-02
  74 F= -.25369468E+03 E0= -.25370228E+03  d E =0.303735E-01
       N       E                     dE             d eps       ncg     rms          rms(c)
DAV:   1    -0.253695928614E+03   -0.12233E-02   -0.35519E-01  4880   0.942E-01    0.241E-01
RMM:   2    -0.253695244554E+03    0.68406E-03   -0.94579E-03  4598   0.157E-01    0.288E-02
RMM:   3    -0.253695324721E+03   -0.80168E-04   -0.45495E-04  3163   0.548E-02
  75 F= -.25369532E+03 E0= -.25370294E+03  d E =0.304694E-01
       N       E                     dE             d eps       ncg     rms          rms(c)
DAV:   1    -0.253696691894E+03   -0.14473E-02   -0.18101E-01  4888   0.680E-01    0.183E-01
RMM:   2    -0.253696258013E+03    0.43388E-03   -0.44492E-03  4218   0.109E-01    0.661E-02
RMM:   3    -0.253696280780E+03   -0.22767E-04   -0.40425E-04  3040   0.424E-02
  76 F= -.25369628E+03 E0= -.25370392E+03  d E =0.305492E-01
       N       E                     dE             d eps       ncg     rms          rms(c)
DAV:   1    -0.253695963313E+03    0.29470E-03   -0.33774E-01  4800   0.922E-01    0.191E-01
RMM:   2    -0.253695886262E+03    0.77050E-04   -0.46406E-03  4221   0.113E-01    0.215E-02
RMM:   3    -0.253695913754E+03   -0.27492E-04   -0.25541E-04  2843   0.408E-02
  77 F= -.25369591E+03 E0= -.25370353E+03  d E =0.304595E-01
       N       E                     dE             d eps       ncg     rms          rms(c)
DAV:   1    -0.253695685832E+03    0.20043E-03   -0.17364E-01  4888   0.670E-01    0.162E-01
RMM:   2    -0.253695474987E+03    0.21085E-03   -0.30849E-03  4021   0.947E-02    0.714E-02
RMM:   3    -0.253695470726E+03    0.42607E-05   -0.37033E-04  3012   0.420E-02
  78 F= -.25369547E+03 E0= -.25370308E+03  d E =0.304192E-01
       N       E                     dE             d eps       ncg     rms          rms(c)
DAV:   1    -0.253696288267E+03   -0.81328E-03   -0.33803E-01  4800   0.927E-01    0.197E-01
RMM:   2    -0.253696137903E+03    0.15036E-03   -0.48836E-03  4240   0.119E-01    0.259E-02
RMM:   3    -0.253696157760E+03   -0.19857E-04   -0.25718E-04  2871   0.426E-02
  79 F= -.25369616E+03 E0= -.25370378E+03  d E =0.304726E-01
       N       E                     dE             d eps       ncg     rms          rms(c)
DAV:   1    -0.253694827189E+03    0.13107E-02   -0.16761E-01  4912   0.679E-01    0.143E-01
RMM:   2    -0.253695017926E+03   -0.19074E-03   -0.29631E-03  3913   0.909E-02    0.831E-02
RMM:   3    -0.253694931077E+03    0.86850E-04   -0.30650E-04  2951   0.389E-02
  80 F= -.25369493E+03 E0= -.25370255E+03  d E =0.304610E-01
       N       E                     dE             d eps       ncg     rms          rms(c)
DAV:   1    -0.253695537443E+03   -0.51952E-03   -0.35420E-01  4800   0.904E-01    0.224E-01
RMM:   2    -0.253695322855E+03    0.21459E-03   -0.75265E-03  4243   0.135E-01    0.362E-02
RMM:   3    -0.253695318699E+03    0.41553E-05   -0.36977E-04  3015   0.472E-02
  81 F= -.25369532E+03 E0= -.25370294E+03  d E =0.304849E-01
       N       E                     dE             d eps       ncg     rms          rms(c)
DAV:   1    -0.253694968729E+03    0.35413E-03   -0.16666E-01  4928   0.617E-01    0.118E-01
RMM:   2    -0.253695160631E+03   -0.19190E-03   -0.14456E-03  3492   0.638E-02    0.725E-02
RMM:   3    -0.253695130732E+03    0.29898E-04   -0.25107E-04  2887   0.348E-02
  82 F= -.25369513E+03 E0= -.25370276E+03  d E =0.304990E-01
       N       E                     dE             d eps       ncg     rms          rms(c)
DAV:   1    -0.253695642000E+03   -0.48137E-03   -0.35283E-01  4920   0.897E-01    0.230E-01
RMM:   2    -0.253695232905E+03    0.40910E-03   -0.75316E-03  4394   0.139E-01    0.362E-02
RMM:   3    -0.253695247518E+03   -0.14613E-04   -0.40741E-04  3046   0.445E-02
  83 F= -.25369525E+03 E0= -.25370287E+03  d E =0.304950E-01
       N       E                     dE             d eps       ncg     rms          rms(c)
DAV:   1    -0.253696496772E+03   -0.12639E-02   -0.16924E-01  4904   0.625E-01    0.132E-01
RMM:   2    -0.253696526242E+03   -0.29470E-04   -0.21429E-03  3669   0.763E-02    0.587E-02
RMM:   3    -0.253696541245E+03   -0.15003E-04   -0.22658E-04  2840   0.322E-02
  84 F= -.25369654E+03 E0= -.25370414E+03  d E =0.304053E-01
       N       E                     dE             d eps       ncg     rms          rms(c)
DAV:   1    -0.253696260522E+03    0.26572E-03   -0.33185E-01  4848   0.874E-01    0.165E-01
RMM:   2    -0.253696532659E+03   -0.27214E-03   -0.28974E-03  3873   0.914E-02    0.219E-02
RMM:   3    -0.253696532472E+03    0.18679E-06   -0.16297E-04  2770   0.326E-02
  85 F= -.25369653E+03 E0= -.25370416E+03  d E =0.305196E-01
       N       E                     dE             d eps       ncg     rms          rms(c)
DAV:   1    -0.253695083996E+03    0.14487E-02   -0.17211E-01  4888   0.671E-01    0.147E-01
RMM:   2    -0.253695179864E+03   -0.95868E-04   -0.28045E-03  3808   0.882E-02    0.904E-02
RMM:   3    -0.253695066788E+03    0.11308E-03   -0.69963E-04  3262   0.421E-02    0.481E-02
RMM:   4    -0.253695046591E+03    0.20196E-04   -0.13531E-04  2735   0.299E-02
  86 F= -.25369505E+03 E0= -.25370267E+03  d E =0.304867E-01
       N       E                     dE             d eps       ncg     rms          rms(c)
DAV:   1    -0.253695300932E+03   -0.23414E-03   -0.36278E-01  4944   0.864E-01    0.252E-01
RMM:   2    -0.253694715376E+03    0.58556E-03   -0.90102E-03  4238   0.137E-01    0.244E-02
RMM:   3    -0.253694744652E+03   -0.29276E-04   -0.52480E-04  3151   0.461E-02
  87 F= -.25369474E+03 E0= -.25370236E+03  d E =0.304559E-01
       N       E                     dE             d eps       ncg     rms          rms(c)
DAV:   1    -0.253696697663E+03   -0.19823E-02   -0.17700E-01  4968   0.601E-01    0.164E-01
RMM:   2    -0.253696468469E+03    0.22919E-03   -0.31746E-03  3808   0.846E-02    0.610E-02
RMM:   3    -0.253696456188E+03    0.12281E-04   -0.33144E-04  2965   0.344E-02
  88 F= -.25369646E+03 E0= -.25370405E+03  d E =0.303795E-01
       N       E                     dE             d eps       ncg     rms          rms(c)
DAV:   1    -0.253696225296E+03    0.24317E-03   -0.33681E-01  4800   0.831E-01    0.169E-01
RMM:   2    -0.253696479866E+03   -0.25457E-03   -0.28997E-03  3761   0.854E-02    0.178E-02
RMM:   3    -0.253696464230E+03    0.15636E-04   -0.14682E-04  2751   0.283E-02
  89 F= -.25369646E+03 E0= -.25370408E+03  d E =0.304825E-01
       N       E                     dE             d eps       ncg     rms          rms(c)
DAV:   1    -0.253695343822E+03    0.11360E-02   -0.17269E-01  4928   0.592E-01    0.150E-01
RMM:   2    -0.253695251568E+03    0.92255E-04   -0.22247E-03  3624   0.731E-02    0.714E-02
RMM:   3    -0.253695221354E+03    0.30214E-04   -0.31194E-04  2930   0.363E-02
  90 F= -.25369522E+03 E0= -.25370284E+03  d E =0.304619E-01
       N       E                     dE             d eps       ncg     rms          rms(c)
DAV:   1    -0.253696028239E+03   -0.77667E-03   -0.35459E-01  4960   0.850E-01    0.226E-01
RMM:   2    -0.253695723231E+03    0.30501E-03   -0.63400E-03  4115   0.118E-01    0.234E-02
RMM:   3    -0.253695745698E+03   -0.22467E-04   -0.39648E-04  3050   0.414E-02
  91 F= -.25369575E+03 E0= -.25370337E+03  d E =0.305164E-01
       N       E                     dE             d eps       ncg     rms          rms(c)
DAV:   1    -0.253691670221E+03    0.40530E-02   -0.63789E-01  4832   0.135E+00    0.168E-01
RMM:   2    -0.253692265924E+03   -0.59570E-03   -0.92122E-03  4152   0.152E-01    0.119E-01
RMM:   3    -0.253692120447E+03    0.14548E-03   -0.41434E-04  2996   0.415E-02    0.819E-02
RMM:   4    -0.253691981432E+03    0.13902E-03   -0.57676E-04  3243   0.383E-02    0.225E-02
RMM:   5    -0.253691975766E+03    0.56658E-05   -0.52217E-05  2520   0.196E-02
  92 F= -.25369198E+03 E0= -.25369961E+03  d E =0.305474E-01
       N       E                     dE             d eps       ncg     rms          rms(c)
DAV:   1    -0.253690452738E+03    0.15287E-02   -0.22207E+00  4800   0.247E+00    0.260E-01
RMM:   2    -0.253691461610E+03   -0.10089E-02   -0.26076E-02  4343   0.262E-01    0.247E-02
RMM:   3    -0.253691518178E+03   -0.56568E-04   -0.10075E-03  3395   0.672E-02    0.119E-02
RMM:   4    -0.253691528119E+03   -0.99412E-05   -0.18109E-04  2741   0.272E-02
  93 F= -.25369153E+03 E0= -.25369915E+03  d E =0.304812E-01
       N       E                     dE             d eps       ncg     rms          rms(c)
DAV:   1    -0.253691650249E+03   -0.13207E-03   -0.10981E+00  4800   0.178E+00    0.178E-01
RMM:   2    -0.253692474640E+03   -0.82439E-03   -0.13906E-02  4286   0.190E-01    0.120E-01
RMM:   3    -0.253692314879E+03    0.15976E-03   -0.76270E-04  3307   0.528E-02    0.788E-02
RMM:   4    -0.253692244133E+03    0.70746E-04   -0.53800E-04  3263   0.421E-02
  94 F= -.25369224E+03 E0= -.25369986E+03  d E =0.304507E-01
       N       E                     dE             d eps       ncg     rms          rms(c)
DAV:   1    -0.253690224710E+03    0.20902E-02   -0.22185E+00  4800   0.255E+00    0.255E-01
RMM:   2    -0.253691575319E+03   -0.13506E-02   -0.28028E-02  4440   0.267E-01    0.288E-02
RMM:   3    -0.253691635844E+03   -0.60525E-04   -0.11702E-03  3468   0.708E-02    0.180E-02
RMM:   4    -0.253691642918E+03   -0.70738E-05   -0.20998E-04  2798   0.298E-02
  95 F= -.25369164E+03 E0= -.25369926E+03  d E =0.304587E-01
       N       E                     dE             d eps       ncg     rms          rms(c)
DAV:   1    -0.253691004010E+03    0.63183E-03   -0.11199E+00  4800   0.176E+00    0.188E-01
RMM:   2    -0.253691777518E+03   -0.77351E-03   -0.12469E-02  4142   0.180E-01    0.127E-01
RMM:   3    -0.253691549708E+03    0.22781E-03   -0.66979E-04  3214   0.485E-02    0.757E-02
RMM:   4    -0.253691387511E+03    0.16220E-03   -0.62751E-04  3364   0.437E-02    0.301E-02
RMM:   5    -0.253691385011E+03    0.24997E-05   -0.12298E-04  2713   0.239E-02
  96 F= -.25369139E+03 E0= -.25369901E+03  d E =0.304806E-01
       N       E                     dE             d eps       ncg     rms          rms(c)
DAV:   1    -0.253690566286E+03    0.82122E-03   -0.22387E+00  4800   0.249E+00    0.267E-01
RMM:   2    -0.253691373103E+03   -0.80682E-03   -0.25167E-02  4388   0.250E-01    0.350E-02
RMM:   3    -0.253691437557E+03   -0.64455E-04   -0.91534E-04  3324   0.612E-02
  97 F= -.25369144E+03 E0= -.25369905E+03  d E =0.304614E-01
       N       E                     dE             d eps       ncg     rms          rms(c)
DAV:   1    -0.253695713487E+03   -0.43404E-02   -0.63736E-01  4816   0.134E+00    0.161E-01
RMM:   2    -0.253696035106E+03   -0.32162E-03   -0.79652E-03  4001   0.140E-01    0.737E-02
RMM:   3    -0.253696006169E+03    0.28937E-04   -0.56832E-04  3160   0.437E-02
  98 F= -.25369601E+03 E0= -.25370362E+03  d E =0.304388E-01
       N       E                     dE             d eps       ncg     rms          rms(c)
DAV:   1    -0.253695736979E+03    0.29813E-03   -0.34354E-01  4784   0.842E-01    0.207E-01
RMM:   2    -0.253695590737E+03    0.14624E-03   -0.59689E-03  3880   0.110E-01    0.306E-02
RMM:   3    -0.253695599661E+03   -0.89237E-05   -0.24344E-04  2857   0.354E-02
  99 F= -.25369560E+03 E0= -.25370321E+03  d E =0.304387E-01
       N       E                     dE             d eps       ncg     rms          rms(c)
DAV:   1    -0.253694200772E+03    0.13900E-02   -0.16860E-01  4784   0.585E-01    0.124E-01
RMM:   2    -0.253694500463E+03   -0.29969E-03   -0.20407E-03  3615   0.675E-02    0.102E-01
RMM:   3    -0.253694315956E+03    0.18451E-03   -0.43702E-04  3029   0.345E-02    0.475E-02
RMM:   4    -0.253694288861E+03    0.27095E-04   -0.16072E-04  2751   0.238E-02
 100 F= -.25369429E+03 E0= -.25370191E+03  d E =0.304949E-01
       N       E                     dE             d eps       ncg     rms          rms(c)
DAV:   1    -0.253695311565E+03   -0.99561E-03   -0.36281E-01  4832   0.856E-01    0.254E-01
RMM:   2    -0.253694698707E+03    0.61286E-03   -0.10407E-02  3939   0.144E-01    0.232E-02
RMM:   3    -0.253694719168E+03   -0.20461E-04   -0.46730E-04  3091   0.469E-02
 101 F= -.25369472E+03 E0= -.25370233E+03  d E =0.304538E-01
       N       E                     dE             d eps       ncg     rms          rms(c)
DAV:   1    -0.253696449532E+03   -0.17508E-02   -0.17178E-01  4880   0.596E-01    0.146E-01
RMM:   2    -0.253696372793E+03    0.76739E-04   -0.25391E-03  3573   0.739E-02    0.665E-02
RMM:   3    -0.253696363851E+03    0.89418E-05   -0.19633E-04  2792   0.289E-02
 102 F= -.25369636E+03 E0= -.25370397E+03  d E =0.304348E-01
       N       E                     dE             d eps       ncg     rms          rms(c)
DAV:   1    -0.253696624522E+03   -0.25173E-03   -0.33145E-01  4856   0.823E-01    0.161E-01
RMM:   2    -0.253696870850E+03   -0.24633E-03   -0.28666E-03  3678   0.827E-02    0.238E-02
RMM:   3    -0.253696874013E+03   -0.31624E-05   -0.13331E-04  2710   0.258E-02
 103 F= -.25369687E+03 E0= -.25370450E+03  d E =0.304923E-01
       N       E                     dE             d eps       ncg     rms          rms(c)
DAV:   1    -0.253696469932E+03    0.40092E-03   -0.16690E-01  4944   0.630E-01    0.119E-01
RMM:   2    -0.253696592968E+03   -0.12304E-03   -0.19009E-03  3506   0.652E-02    0.695E-02
RMM:   3    -0.253696545335E+03    0.47633E-04   -0.19993E-04  2820   0.285E-02
 104 F= -.25369655E+03 E0= -.25370418E+03  d E =0.305407E-01
       N       E                     dE             d eps       ncg     rms          rms(c)
DAV:   1    -0.253695817095E+03    0.77587E-03   -0.33824E-01  4880   0.864E-01    0.183E-01
RMM:   2    -0.253695916446E+03   -0.99351E-04   -0.42391E-03  3889   0.974E-02    0.260E-02
RMM:   3    -0.253695906484E+03    0.99618E-05   -0.18518E-04  2784   0.313E-02
 105 F= -.25369591E+03 E0= -.25370353E+03  d E =0.304803E-01
       N       E                     dE             d eps       ncg     rms          rms(c)
DAV:   1    -0.253695983351E+03   -0.66905E-04   -0.16570E-01  4880   0.607E-01    0.115E-01
RMM:   2    -0.253696119951E+03   -0.13660E-03   -0.14511E-03  3466   0.594E-02    0.642E-02
RMM:   3    -0.253696112379E+03    0.75721E-05   -0.16698E-04  2801   0.292E-02
 106 F= -.25369611E+03 E0= -.25370373E+03  d E =0.304691E-01
       N       E                     dE             d eps       ncg     rms          rms(c)
DAV:   1    -0.253696568438E+03   -0.44849E-03   -0.33405E-01  4880   0.863E-01    0.170E-01
RMM:   2    -0.253696761680E+03   -0.19324E-03   -0.32725E-03  3760   0.875E-02    0.252E-02
RMM:   3    -0.253696768493E+03   -0.68131E-05   -0.14967E-04  2749   0.281E-02
 107 F= -.25369677E+03 E0= -.25370438E+03  d E =0.304614E-01
       N       E                     dE             d eps       ncg     rms          rms(c)
DAV:   1    -0.253694693359E+03    0.20683E-02   -0.17729E-01  4960   0.628E-01    0.174E-01
RMM:   2    -0.253694466591E+03    0.22677E-03   -0.42113E-03  3806   0.940E-02    0.827E-02
RMM:   3    -0.253694466545E+03    0.46653E-07   -0.73280E-04  3308   0.424E-02
 108 F= -.25369447E+03 E0= -.25370209E+03  d E =0.304961E-01
       N       E                     dE             d eps       ncg     rms          rms(c)
DAV:   1    -0.253694807466E+03   -0.34087E-03   -0.36904E-01  4880   0.906E-01    0.271E-01
RMM:   2    -0.253693910164E+03    0.89730E-03   -0.12687E-02  4177   0.157E-01    0.351E-02
RMM:   3    -0.253693959743E+03   -0.49580E-04   -0.57893E-04  3145   0.496E-02
 109 F= -.25369396E+03 E0= -.25370158E+03  d E =0.304825E-01
       N       E                     dE             d eps       ncg     rms          rms(c)
DAV:   1    -0.253694761614E+03   -0.85145E-03   -0.17554E-01  4920   0.648E-01    0.168E-01
RMM:   2    -0.253694712493E+03    0.49120E-04   -0.48194E-03  3817   0.979E-02    0.858E-02
RMM:   3    -0.253694701689E+03    0.10804E-04   -0.32508E-04  3002   0.394E-02
 110 F= -.25369470E+03 E0= -.25370231E+03  d E =0.304198E-01
       N       E                     dE             d eps       ncg     rms          rms(c)
DAV:   1    -0.253695376208E+03   -0.66372E-03   -0.35547E-01  4776   0.848E-01    0.224E-01
RMM:   2    -0.253695226456E+03    0.14975E-03   -0.73780E-03  3947   0.133E-01    0.559E-02
RMM:   3    -0.253695192912E+03    0.33544E-04   -0.40954E-04  3023   0.427E-02
 111 F= -.25369519E+03 E0= -.25370283E+03  d E =0.305350E-01
       N       E                     dE             d eps       ncg     rms          rms(c)
DAV:   1    -0.253696516276E+03   -0.12898E-02   -0.17475E-01  4816   0.598E-01    0.146E-01
RMM:   2    -0.253696466849E+03    0.49427E-04   -0.32015E-03  3702   0.848E-02    0.648E-02
RMM:   3    -0.253696457064E+03    0.97854E-05   -0.20441E-04  2812   0.325E-02
 112 F= -.25369646E+03 E0= -.25370407E+03  d E =0.304376E-01
       N       E                     dE             d eps       ncg     rms          rms(c)
DAV:   1    -0.253696367223E+03    0.99627E-04   -0.32973E-01  4736   0.821E-01    0.162E-01
RMM:   2    -0.253696604894E+03   -0.23767E-03   -0.30337E-03  3695   0.856E-02    0.224E-02
RMM:   3    -0.253696607420E+03   -0.25261E-05   -0.14435E-04  2737   0.268E-02
 113 F= -.25369661E+03 E0= -.25370423E+03  d E =0.304781E-01
       N       E                     dE             d eps       ncg     rms          rms(c)
DAV:   1    -0.253695780382E+03    0.82451E-03   -0.17240E-01  4800   0.593E-01    0.148E-01
RMM:   2    -0.253695695701E+03    0.84681E-04   -0.24281E-03  3578   0.758E-02    0.708E-02
RMM:   3    -0.253695646338E+03    0.49363E-04   -0.17577E-04  2796   0.306E-02
 114 F= -.25369565E+03 E0= -.25370325E+03  d E =0.304052E-01
       N       E                     dE             d eps       ncg     rms          rms(c)
DAV:   1    -0.253695457598E+03    0.23810E-03   -0.34855E-01  4904   0.836E-01    0.212E-01
RMM:   2    -0.253695271614E+03    0.18598E-03   -0.61264E-03  4061   0.121E-01    0.287E-02
RMM:   3    -0.253695268349E+03    0.32649E-05   -0.32562E-04  2955   0.368E-02
 115 F= -.25369527E+03 E0= -.25370289E+03  d E =0.304805E-01
