       N       E                     dE             d eps       ncg     rms          rms(c)
DAV:   1     0.354392672197E+04    0.35439E+04   -0.14303E+05 16264   0.117E+03
DAV:   2     0.198367496195E+03   -0.33456E+04   -0.30753E+04 16892   0.449E+02
DAV:   3    -0.234268347565E+03   -0.43264E+03   -0.40239E+03 21664   0.131E+02
DAV:   4    -0.269097854926E+03   -0.34830E+02   -0.31393E+02 23752   0.384E+01
DAV:   5    -0.270326040468E+03   -0.12282E+01   -0.11927E+01 22280   0.616E+00    0.280E+01
RMM:   6    -0.261749748820E+03    0.85763E+01   -0.15787E+01 18255   0.740E+00    0.221E+01
RMM:   7    -0.270371675136E+03   -0.86219E+01   -0.19682E+01 17973   0.796E+00    0.270E+01
RMM:   8    -0.267623078314E+03    0.27486E+01   -0.15729E+01 18105   0.707E+00    0.254E+01
RMM:   9    -0.248325524455E+03    0.19298E+02   -0.13023E+01 16450   0.910E+00    0.125E+01
RMM:  10    -0.246704007071E+03    0.16215E+01   -0.35639E+00 18986   0.353E+00    0.780E+00
RMM:  11    -0.246088219299E+03    0.61579E+00   -0.15984E+00 16897   0.285E+00    0.455E+00
RMM:  12    -0.245885060472E+03    0.20316E+00   -0.71533E-01 17137   0.189E+00    0.265E+00
RMM:  13    -0.245866499812E+03    0.18561E-01   -0.21980E-01 18216   0.975E-01    0.186E+00
RMM:  14    -0.245871381231E+03   -0.48814E-02   -0.89927E-02 16934   0.601E-01    0.127E+00
RMM:  15    -0.245856302785E+03    0.15078E-01   -0.63521E-02 16364   0.584E-01    0.841E-01
RMM:  16    -0.245851978161E+03    0.43246E-02   -0.28809E-02 18523   0.335E-01    0.517E-01
RMM:  17    -0.245858506515E+03   -0.65284E-02   -0.11782E-02 17164   0.195E-01    0.433E-01
RMM:  18    -0.245860029724E+03   -0.15232E-02   -0.79811E-03 16411   0.171E-01    0.286E-01
RMM:  19    -0.245860295591E+03   -0.26587E-03   -0.29830E-03 16298   0.128E-01    0.184E-01
RMM:  20    -0.245860520050E+03   -0.22446E-03   -0.22911E-03 16686   0.934E-02    0.137E-01
RMM:  21    -0.245860336636E+03    0.18341E-03   -0.12655E-03 16657   0.786E-02    0.872E-02
RMM:  22    -0.245860197880E+03    0.13876E-03   -0.55952E-04 18098   0.471E-02    0.526E-02
RMM:  23    -0.245860093703E+03    0.10418E-03   -0.29145E-04 16503   0.331E-02    0.369E-02
RMM:  24    -0.245860150383E+03   -0.56679E-04   -0.38979E-04 16259   0.403E-02    0.228E-02
RMM:  25    -0.245860238941E+03   -0.88558E-04   -0.15753E-04 17830   0.210E-02    0.207E-02
RMM:  26    -0.245860326531E+03   -0.87590E-04   -0.96815E-05 16200   0.184E-02    0.113E-02
RMM:  27    -0.245860413951E+03   -0.87421E-04   -0.83716E-05 16306   0.167E-02    0.995E-03
RMM:  28    -0.245860458226E+03   -0.44275E-04   -0.28991E-05 16675   0.868E-03    0.583E-03
RMM:  29    -0.245860501888E+03   -0.43662E-04   -0.24748E-05 15851   0.857E-03    0.350E-03
RMM:  30    -0.245860516977E+03   -0.15089E-04   -0.83775E-06 13356   0.456E-03    0.301E-03
RMM:  31    -0.245860523007E+03   -0.60298E-05   -0.29834E-06 10481   0.304E-03    0.175E-03
RMM:  32    -0.245860527395E+03   -0.43888E-05   -0.27980E-06 10375   0.330E-03    0.108E-03
RMM:  33    -0.245860528611E+03   -0.12157E-05   -0.11192E-06  9218   0.238E-03    0.119E-03
RMM:  34    -0.245860528841E+03   -0.22967E-06   -0.46294E-07  9050   0.171E-03
   1 F= -.24586053E+03 E0= -.24585456E+03  d E =-.245861E+03
       N       E                     dE             d eps       ncg     rms          rms(c)
DAV:   1    -0.245862371215E+03   -0.18426E-02   -0.92659E-02 16936   0.577E-01    0.315E-02
RMM:   2    -0.245862496875E+03   -0.12566E-03   -0.13836E-03 16242   0.928E-02    0.253E-02
RMM:   3    -0.245862504798E+03   -0.79230E-05   -0.13212E-04 19394   0.307E-02    0.231E-02
RMM:   4    -0.245862495303E+03    0.94955E-05   -0.31081E-05 18027   0.963E-03    0.104E-02
RMM:   5    -0.245862495941E+03   -0.63838E-06   -0.12204E-05 16113   0.755E-03    0.409E-03
RMM:   6    -0.245862497242E+03   -0.13011E-05   -0.13759E-06  9089   0.267E-03    0.325E-03
RMM:   7    -0.245862498273E+03   -0.10311E-05   -0.12456E-06  9105   0.321E-03    0.186E-03
RMM:   8    -0.245862498405E+03   -0.13162E-06   -0.45163E-07  8886   0.188E-03
   2 F= -.24586250E+03 E0= -.24585651E+03  d E =-.196956E-02
       N       E                     dE             d eps       ncg     rms          rms(c)
DAV:   1    -0.245865130817E+03   -0.26325E-02   -0.83388E-01 16532   0.173E+00    0.946E-02
RMM:   2    -0.245866151393E+03   -0.10206E-02   -0.10788E-02 16245   0.270E-01    0.201E-02
RMM:   3    -0.245866261402E+03   -0.11001E-03   -0.11444E-03 21493   0.831E-02    0.502E-03
RMM:   4    -0.245866268774E+03   -0.73721E-05   -0.75701E-05 15210   0.109E-02    0.291E-03
RMM:   5    -0.245866270021E+03   -0.12470E-05   -0.61774E-06 10710   0.563E-03    0.158E-03
RMM:   6    -0.245866271790E+03   -0.17691E-05   -0.26753E-06 10236   0.287E-03    0.144E-03
RMM:   7    -0.245866272372E+03   -0.58119E-06   -0.54499E-07  9094   0.199E-03
   3 F= -.24586627E+03 E0= -.24586023E+03  d E =-.574353E-02
       N       E                     dE             d eps       ncg     rms          rms(c)
DAV:   1    -0.245859540846E+03    0.67309E-02   -0.33366E+00 16208   0.346E+00    0.191E-01
RMM:   2    -0.245863670364E+03   -0.41295E-02   -0.43463E-02 16245   0.551E-01    0.410E-02
RMM:   3    -0.245864143599E+03   -0.47324E-03   -0.48722E-03 22574   0.163E-01    0.473E-03
RMM:   4    -0.245864160331E+03   -0.16732E-04   -0.15881E-04 19565   0.153E-02    0.332E-03
RMM:   5    -0.245864162307E+03   -0.19760E-05   -0.13240E-05 11064   0.642E-03    0.266E-03
RMM:   6    -0.245864162737E+03   -0.43061E-06   -0.28778E-06  9733   0.333E-03
   4 F= -.24586416E+03 E0= -.24585799E+03  d E =-.363390E-02
       N       E                     dE             d eps       ncg     rms          rms(c)
DAV:   1    -0.245864985012E+03   -0.82271E-03   -0.14730E+00 16220   0.230E+00    0.127E-01
RMM:   2    -0.245866794156E+03   -0.18091E-02   -0.18557E-02 16241   0.357E-01    0.382E-02
RMM:   3    -0.245866987028E+03   -0.19287E-03   -0.19824E-03 22047   0.108E-01    0.176E-02
RMM:   4    -0.245866994318E+03   -0.72897E-05   -0.99622E-05 18506   0.130E-02    0.116E-02
RMM:   5    -0.245866993320E+03    0.99808E-06   -0.10427E-05 11825   0.804E-03    0.651E-03
RMM:   6    -0.245866993151E+03    0.16922E-06   -0.35252E-06  9936   0.328E-03
   5 F= -.24586699E+03 E0= -.24586091E+03  d E =-.646431E-02
       N       E                     dE             d eps       ncg     rms          rms(c)
DAV:   1    -0.245868370655E+03   -0.13773E-02   -0.24151E-01 16316   0.946E-01    0.536E-02
RMM:   2    -0.245868784083E+03   -0.41343E-03   -0.43914E-03 16238   0.158E-01    0.593E-02
RMM:   3    -0.245868814527E+03   -0.30445E-04   -0.41981E-04 19586   0.556E-02    0.646E-02
RMM:   4    -0.245868773136E+03    0.41391E-04   -0.13259E-04 17556   0.251E-02    0.467E-02
RMM:   5    -0.245868755219E+03    0.17917E-04   -0.14682E-04 16801   0.217E-02    0.431E-02
RMM:   6    -0.245868754535E+03    0.68407E-06   -0.14683E-05 16098   0.810E-03    0.385E-02
RMM:   7    -0.245868757755E+03   -0.32198E-05   -0.18456E-05 16264   0.111E-02    0.374E-02
RMM:   8    -0.245868753621E+03    0.41335E-05   -0.53293E-06 12392   0.585E-03    0.353E-02
RMM:   9    -0.245868743557E+03    0.10065E-04   -0.63627E-06 15383   0.494E-03    0.303E-02
RMM:  10    -0.245868736481E+03    0.70755E-05   -0.28889E-06  9322   0.459E-03    0.263E-02
RMM:  11    -0.245868731527E+03    0.49539E-05   -0.41023E-06 11397   0.426E-03    0.227E-02
RMM:  12    -0.245868725509E+03    0.60186E-05   -0.64158E-06 15422   0.541E-03    0.173E-02
RMM:  13    -0.245868723769E+03    0.17399E-05   -0.14972E-06  8766   0.337E-03    0.151E-02
RMM:  14    -0.245868721709E+03    0.20603E-05   -0.19918E-06  8767   0.314E-03    0.123E-02
RMM:  15    -0.245868718815E+03    0.28939E-05   -0.72121E-06 15523   0.573E-03    0.620E-03
RMM:  16    -0.245868718341E+03    0.47418E-06   -0.16197E-06  8721   0.381E-03
   6 F= -.24586872E+03 E0= -.24586262E+03  d E =-.172519E-02
