 vasp.5.4.4.18Apr17-6-g9f103f2a35 (build Sep 11 2020 00:39:59) complex          
  
 executed on           VASP@albus date 2021.05.15  08:30:38
 running on    1 total cores
 distrk:  each k-point on    1 cores,    1 groups
 distr:  one band on NCORES_PER_BAND=   1 cores,    1 groups


--------------------------------------------------------------------------------------------------------


 INCAR:
 POTCAR:   PAW_PBE Pt 05Jan2001                   
 POTCAR:   PAW_PBE C 08Apr2002                    
 POTCAR:   PAW_PBE H 15Jun2001                    
 POTCAR:   PAW_PBE C 08Apr2002                    
 POTCAR:   PAW_PBE H 15Jun2001                    

 ----------------------------------------------------------------------------- 
|                                                                             |
|  ADVICE TO THIS USER RUNNING 'VASP/VAMP'   (HEAR YOUR MASTER'S VOICE ...):  |
|                                                                             |
|      You have switched on vdW-DFT.                                          |
|      This routine was written and supplied by Jiri Klimes.                  |
|      We recommed that you carefully read and cite the following             |
|      publication                                                            |
|      J. Klimes, D.R. Bowler, A. Michelides                                  |
|        J. Phys.: Cond Matt. 22 022201 (2010)                                |
|      J. Klimes, D.R. Bowler, A. Michelides                                  |
|        Phys. Rev. B. 83, 195131 (2011)                                      |
|      and references therein.                                                |
|                                                                             |
 ----------------------------------------------------------------------------- 

 POTCAR:   PAW_PBE Pt 05Jan2001                   
   VRHFIN =Pt: s1d9                                                             
   LEXCH  = PE                                                                  
   EATOM  =   729.1171 eV,   53.5886 Ry                                         
                                                                                
   TITEL  = PAW_PBE Pt 05Jan2001                                                
   LULTRA =        F    use ultrasoft PP ?                                      
   IUNSCR =        1    unscreen: 0-lin 1-nonlin 2-no                           
   RPACOR =    2.330    partial core radius                                     
   POMASS =  195.080; ZVAL   =   10.000    mass and valenz                      
   RCORE  =    2.500    outmost cutoff radius                                   
   RWIGS  =    2.750; RWIGS  =    1.455    wigner-seitz radius (au A)           
   ENMAX  =  230.283; ENMIN  =  172.712 eV                                      
   RCLOC  =    1.896    cutoff for local pot                                    
   LCOR   =        T    correct aug charges                                     
   LPAW   =        T    paw PP                                                  
   EAUG   =  358.966                                                            
   DEXC   =    -.039                                                            
   RMAX   =    3.038    core radius for proj-oper                               
   RAUG   =    1.300    factor for augmentation sphere                          
   RDEP   =    2.590    radius for radial grids                                 
   QCUT   =   -4.114; QGAM   =    8.228    optimization parameters              
                                                                                
   Description                                                                  
     l     E      TYP  RCUT    TYP  RCUT                                        
     2   .000     23  2.500                                                     
     2   .000     23  2.500                                                     
     0   .000     23  2.500                                                     
     0   .000     23  2.500                                                     
     1  -.200     23  2.500                                                     
     1  1.500     23  2.500                                                     
     3   .000      7   .000                                                     
  local pseudopotential read in
  partial core-charges read in
  atomic valenz-charges read in
  non local Contribution for L=           2  read in
    real space projection operators read in
  non local Contribution for L=           2  read in
    real space projection operators read in
  non local Contribution for L=           0  read in
    real space projection operators read in
  non local Contribution for L=           0  read in
    real space projection operators read in
  non local Contribution for L=           1  read in
    real space projection operators read in
  non local Contribution for L=           1  read in
    real space projection operators read in
    PAW grid and wavefunctions read in
 
   number of l-projection  operators is LMAX  =           6
   number of lm-projection operators is LMMAX =          18
 
 POTCAR:   PAW_PBE C 08Apr2002                    
   VRHFIN =C: s2p2                                                              
   LEXCH  = PE                                                                  
   EATOM  =   147.1560 eV,   10.8157 Ry                                         
                                                                                
   TITEL  = PAW_PBE C 08Apr2002                                                 
   LULTRA =        F    use ultrasoft PP ?                                      
   IUNSCR =        0    unscreen: 0-lin 1-nonlin 2-no                           
   RPACOR =     .000    partial core radius                                     
   POMASS =   12.011; ZVAL   =    4.000    mass and valenz                      
   RCORE  =    1.500    outmost cutoff radius                                   
   RWIGS  =    1.630; RWIGS  =     .863    wigner-seitz radius (au A)           
   ENMAX  =  400.000; ENMIN  =  300.000 eV                                      
   ICORE  =        2    local potential                                         
   LCOR   =        T    correct aug charges                                     
   LPAW   =        T    paw PP                                                  
   EAUG   =  644.873                                                            
   DEXC   =     .000                                                            
   RMAX   =    2.266    core radius for proj-oper                               
   RAUG   =    1.300    factor for augmentation sphere                          
   RDEP   =    1.501    radius for radial grids                                 
   RDEPT  =    1.300    core radius for aug-charge                              
   QCUT   =   -5.516; QGAM   =   11.032    optimization parameters              
                                                                                
   Description                                                                  
     l     E      TYP  RCUT    TYP  RCUT                                        
     0   .000     23  1.200                                                     
     0   .000     23  1.200                                                     
     1   .000     23  1.500                                                     
     1  2.500     23  1.500                                                     
     2   .000      7  1.500                                                     
  local pseudopotential read in
  atomic valenz-charges read in
  non local Contribution for L=           0  read in
    real space projection operators read in
  non local Contribution for L=           0  read in
    real space projection operators read in
  non local Contribution for L=           1  read in
    real space projection operators read in
  non local Contribution for L=           1  read in
    real space projection operators read in
    PAW grid and wavefunctions read in
 
   number of l-projection  operators is LMAX  =           4
   number of lm-projection operators is LMMAX =           8
 
 POTCAR:   PAW_PBE H 15Jun2001                    
   VRHFIN =H: ultrasoft test                                                    
   LEXCH  = PE                                                                  
   EATOM  =    12.4884 eV,     .9179 Ry                                         
                                                                                
   TITEL  = PAW_PBE H 15Jun2001                                                 
   LULTRA =        F    use ultrasoft PP ?                                      
   IUNSCR =        0    unscreen: 0-lin 1-nonlin 2-no                           
   RPACOR =     .000    partial core radius                                     
   POMASS =    1.000; ZVAL   =    1.000    mass and valenz                      
   RCORE  =    1.100    outmost cutoff radius                                   
   RWIGS  =     .700; RWIGS  =     .370    wigner-seitz radius (au A)           
   ENMAX  =  250.000; ENMIN  =  200.000 eV                                      
   RCLOC  =     .701    cutoff for local pot                                    
   LCOR   =        T    correct aug charges                                     
   LPAW   =        T    paw PP                                                  
   EAUG   =  400.000                                                            
   RMAX   =    2.174    core radius for proj-oper                               
   RAUG   =    1.200    factor for augmentation sphere                          
   RDEP   =    1.112    radius for radial grids                                 
   QCUT   =   -5.749; QGAM   =   11.498    optimization parameters              
                                                                                
   Description                                                                  
     l     E      TYP  RCUT    TYP  RCUT                                        
     0   .000     23  1.100                                                     
     0   .500     23  1.100                                                     
     1  -.300     23  1.100                                                     
  local pseudopotential read in
  atomic valenz-charges read in
  non local Contribution for L=           0  read in
    real space projection operators read in
  non local Contribution for L=           0  read in
    real space projection operators read in
  non local Contribution for L=           1  read in
    real space projection operators read in
    PAW grid and wavefunctions read in
 
   number of l-projection  operators is LMAX  =           3
   number of lm-projection operators is LMMAX =           5
 
 POTCAR:   PAW_PBE C 08Apr2002                    
   VRHFIN =C: s2p2                                                              
   LEXCH  = PE                                                                  
   EATOM  =   147.1560 eV,   10.8157 Ry                                         
                                                                                
   TITEL  = PAW_PBE C 08Apr2002                                                 
   LULTRA =        F    use ultrasoft PP ?                                      
   IUNSCR =        0    unscreen: 0-lin 1-nonlin 2-no                           
   RPACOR =     .000    partial core radius                                     
   POMASS =   12.011; ZVAL   =    4.000    mass and valenz                      
   RCORE  =    1.500    outmost cutoff radius                                   
   RWIGS  =    1.630; RWIGS  =     .863    wigner-seitz radius (au A)           
   ENMAX  =  400.000; ENMIN  =  300.000 eV                                      
   ICORE  =        2    local potential                                         
   LCOR   =        T    correct aug charges                                     
   LPAW   =        T    paw PP                                                  
   EAUG   =  644.873                                                            
   DEXC   =     .000                                                            
   RMAX   =    2.266    core radius for proj-oper                               
   RAUG   =    1.300    factor for augmentation sphere                          
   RDEP   =    1.501    radius for radial grids                                 
   RDEPT  =    1.300    core radius for aug-charge                              
   QCUT   =   -5.516; QGAM   =   11.032    optimization parameters              
                                                                                
   Description                                                                  
     l     E      TYP  RCUT    TYP  RCUT                                        
     0   .000     23  1.200                                                     
     0   .000     23  1.200                                                     
     1   .000     23  1.500                                                     
     1  2.500     23  1.500                                                     
     2   .000      7  1.500                                                     
  local pseudopotential read in
  atomic valenz-charges read in
  non local Contribution for L=           0  read in
    real space projection operators read in
  non local Contribution for L=           0  read in
    real space projection operators read in
  non local Contribution for L=           1  read in
    real space projection operators read in
  non local Contribution for L=           1  read in
    real space projection operators read in
    PAW grid and wavefunctions read in
 
   number of l-projection  operators is LMAX  =           4
   number of lm-projection operators is LMMAX =           8
 
 POTCAR:   PAW_PBE H 15Jun2001                    
   VRHFIN =H: ultrasoft test                                                    
   LEXCH  = PE                                                                  
   EATOM  =    12.4884 eV,     .9179 Ry                                         
                                                                                
   TITEL  = PAW_PBE H 15Jun2001                                                 
   LULTRA =        F    use ultrasoft PP ?                                      
   IUNSCR =        0    unscreen: 0-lin 1-nonlin 2-no                           
   RPACOR =     .000    partial core radius                                     
   POMASS =    1.000; ZVAL   =    1.000    mass and valenz                      
   RCORE  =    1.100    outmost cutoff radius                                   
   RWIGS  =     .700; RWIGS  =     .370    wigner-seitz radius (au A)           
   ENMAX  =  250.000; ENMIN  =  200.000 eV                                      
   RCLOC  =     .701    cutoff for local pot                                    
   LCOR   =        T    correct aug charges                                     
   LPAW   =        T    paw PP                                                  
   EAUG   =  400.000                                                            
   RMAX   =    2.174    core radius for proj-oper                               
   RAUG   =    1.200    factor for augmentation sphere                          
   RDEP   =    1.112    radius for radial grids                                 
   QCUT   =   -5.749; QGAM   =   11.498    optimization parameters              
                                                                                
   Description                                                                  
     l     E      TYP  RCUT    TYP  RCUT                                        
     0   .000     23  1.100                                                     
     0   .500     23  1.100                                                     
     1  -.300     23  1.100                                                     
  local pseudopotential read in
  atomic valenz-charges read in
  non local Contribution for L=           0  read in
    real space projection operators read in
  non local Contribution for L=           0  read in
    real space projection operators read in
  non local Contribution for L=           1  read in
    real space projection operators read in
    PAW grid and wavefunctions read in
 
   number of l-projection  operators is LMAX  =           3
   number of lm-projection operators is LMMAX =           5
 
 Optimization of the real space projectors (new method)

 maximal supplied QI-value         = 15.12
 optimisation between [QCUT,QGAM] = [ 10.13, 20.26] = [ 28.73,114.92] Ry 
 Optimized for a Real-space Cutoff    1.52 Angstroem

   l    n(q)    QCUT    max X(q) W(low)/X(q) W(high)/X(q)  e(spline) 
   2      8    10.129     3.643    0.62E-04    0.19E-04    0.48E-07
   2      8    10.129    46.462    0.29E-03    0.41E-03    0.31E-06
   0      9    10.129    13.796    0.15E-04    0.14E-04    0.48E-08
   0      9    10.129    57.669    0.22E-03    0.23E-03    0.89E-07
   1      9    10.129     7.440    0.50E-04    0.32E-04    0.34E-07
   1      9    10.129    10.255    0.23E-03    0.57E-04    0.13E-06
 Optimization of the real space projectors (new method)

 maximal supplied QI-value         = 25.13
 optimisation between [QCUT,QGAM] = [ 10.05, 20.36] = [ 28.30,116.06] Ry 
 Optimized for a Real-space Cutoff    1.31 Angstroem

   l    n(q)    QCUT    max X(q) W(low)/X(q) W(high)/X(q)  e(spline) 
   0      8    10.053     5.582    0.38E-04    0.40E-04    0.62E-07
   0      8    10.053    69.432    0.43E-03    0.68E-03    0.18E-06
   1      7    10.053     2.780    0.81E-04    0.10E-03    0.11E-06
   1      7    10.053     4.549    0.23E-03    0.15E-03    0.21E-06
 Optimization of the real space projectors (new method)

 maximal supplied QI-value         = 34.20
 optimisation between [QCUT,QGAM] = [  9.92, 20.18] = [ 27.55,114.04] Ry 
 Optimized for a Real-space Cutoff    1.27 Angstroem

   l    n(q)    QCUT    max X(q) W(low)/X(q) W(high)/X(q)  e(spline) 
   0      8     9.919     4.436    0.78E-04    0.69E-04    0.53E-07
   0      8     9.919    16.131    0.45E-03    0.25E-03    0.29E-06
   1      7     9.919     4.654    0.17E-03    0.70E-03    0.31E-06
 Optimization of the real space projectors (new method)

 maximal supplied QI-value         = 25.13
 optimisation between [QCUT,QGAM] = [ 10.05, 20.36] = [ 28.30,116.06] Ry 
 Optimized for a Real-space Cutoff    1.31 Angstroem

   l    n(q)    QCUT    max X(q) W(low)/X(q) W(high)/X(q)  e(spline) 
   0      8    10.053     5.582    0.38E-04    0.40E-04    0.62E-07
   0      8    10.053    69.432    0.43E-03    0.68E-03    0.18E-06
   1      7    10.053     2.780    0.81E-04    0.10E-03    0.11E-06
   1      7    10.053     4.549    0.23E-03    0.15E-03    0.21E-06
 Optimization of the real space projectors (new method)

 maximal supplied QI-value         = 34.20
 optimisation between [QCUT,QGAM] = [  9.92, 20.18] = [ 27.55,114.04] Ry 
 Optimized for a Real-space Cutoff    1.27 Angstroem

   l    n(q)    QCUT    max X(q) W(low)/X(q) W(high)/X(q)  e(spline) 
   0      8     9.919     4.436    0.78E-04    0.69E-04    0.53E-07
   0      8     9.919    16.131    0.45E-03    0.25E-03    0.29E-06
   1      7     9.919     4.654    0.17E-03    0.70E-03    0.31E-06

 ----------------------------------------------------------------------------- 
|                                                                             |
|  ADVICE TO THIS USER RUNNING 'VASP/VAMP'   (HEAR YOUR MASTER'S VOICE ...):  |
|                                                                             |
|      You enforced a specific xc-type in the INCAR file,                     |
|      a different type was found on the POTCAR file                          |
|          I HOPE YOU KNOW, WHAT YOU ARE  DOING                               |
|                                                                             |
 ----------------------------------------------------------------------------- 

 PAW_PBE Pt 05Jan2001                   :
 energy of atom  1       EATOM= -729.1171
 kinetic energy error for atom=    0.0058 (will be added to EATOM!!)
 PAW_PBE C 08Apr2002                    :
 energy of atom  2       EATOM= -147.1560
 kinetic energy error for atom=    0.0312 (will be added to EATOM!!)
 PAW_PBE H 15Jun2001                    :
 energy of atom  3       EATOM=  -12.4884
 kinetic energy error for atom=    0.0103 (will be added to EATOM!!)
 PAW_PBE C 08Apr2002                    :
 energy of atom  4       EATOM= -147.1560
 kinetic energy error for atom=    0.0312 (will be added to EATOM!!)
 PAW_PBE H 15Jun2001                    :
 energy of atom  5       EATOM=  -12.4884
 kinetic energy error for atom=    0.0103 (will be added to EATOM!!)
 
 
 POSCAR: Pt                                      
  positions in direct lattice
  velocities in cartesian coordinates
 exchange correlation table for  LEXCH =       41
   RHO(1)=    0.500       N(1)  =     2000
   RHO(2)=  100.500       N(2)  =     4000
 


--------------------------------------------------------------------------------------------------------


 ion  position               nearest neighbor table
   1  0.000  0.000  0.372-   3 2.82  10 2.82   4 2.82   7 2.82  12 2.82  16 2.82   2 2.82   6 2.82
                             8 2.82
   2  0.333  0.000  0.372-   9 2.82  11 2.82   5 2.82   8 2.82  17 2.82   3 2.82   1 2.82  10 2.82
                             4 2.82
   3  0.667  0.000  0.372-   1 2.82  12 2.82   7 2.82   6 2.82  18 2.82   2 2.82  11 2.82   5 2.82
                             9 2.82
   4  1.000  0.333  0.372-   9 2.82   6 2.82   7 2.82  15 2.82   1 2.82  13 2.82   5 2.82  10 2.82
                             2 2.82
   5  0.333  0.333  0.372-   7 2.82  13 2.82  14 2.82   8 2.82   2 2.82   4 2.82   6 2.82  11 2.82
                             3 2.82
   6  0.667  0.333  0.372-   8 2.82   9 2.82   4 2.82  15 2.82   3 2.82  14 2.82   5 2.82   1 2.82
                            12 2.82
   7  0.000  0.667  0.372-   5 2.82   4 2.82  16 2.82   3 2.82   1 2.82  18 2.82   8 2.82  13 2.82
                             9 2.82
   8  0.333  0.667  0.372-   9 2.82   6 2.82   5 2.82  17 2.82   2 2.82   7 2.82  14 2.82   1 2.82
                            16 2.82
   9  0.667  0.667  0.372-   8 2.82   6 2.82   4 2.82   2 2.82  17 2.82  15 2.82  18 2.82   7 2.82
                             3 2.82
  10  0.111  0.111  0.457-  21 2.80  15 2.82  12 2.82  13 2.82   1 2.82  16 2.82  11 2.82   4 2.82
                            17 2.82   2 2.82  25 2.83  19 2.85
  11  0.444  0.111  0.457-  20 2.80  14 2.82  13 2.82   2 2.82  17 2.82  10 2.82  12 2.82   5 2.82
                            18 2.82   3 2.82  19 2.85  26 2.86
  12  0.778  0.111  0.457-  27 2.78  20 2.81  21 2.81  15 2.82  10 2.82  14 2.82   3 2.82  16 2.82
                            18 2.82   1 2.82  11 2.82   6 2.82
  13  0.111  0.444  0.457-  22 2.82  14 2.82  11 2.82   5 2.82  10 2.82  16 2.82   4 2.82  18 2.82
                             7 2.82  15 2.82  24 2.84  19 2.87
  14  0.444  0.444  0.457-  20 2.79  22 2.81  13 2.82  11 2.82   5 2.82  12 2.82  16 2.82   6 2.82
                            15 2.82   8 2.82  17 2.82  23 2.87
  15  0.778  0.444  0.457-  21 2.78  12 2.82  10 2.82   6 2.82   4 2.82  17 2.82  14 2.82   9 2.82
                            13 2.82  18 2.82  24 2.82  23 2.87
  16  0.111  0.778  0.457-  27 2.79  22 2.81  18 2.82   7 2.82  12 2.82  14 2.82  13 2.82  10 2.82
                             1 2.82  17 2.82   8 2.82  25 2.86
  17  0.444  0.778  0.457-   9 2.82   8 2.82  15 2.82  11 2.82   2 2.82  16 2.82  18 2.82  10 2.82
                            14 2.82  23 2.84  25 2.84  26 2.86
  18  0.778  0.778  0.457-  27 2.79  16 2.82  12 2.82   7 2.82   3 2.82  17 2.82  13 2.82  11 2.82
                             9 2.82  15 2.82  24 2.82  26 2.88
  19  0.224  0.220  0.545-  25 2.78  26 2.79  29 2.81  28 2.81  20 2.81  21 2.81  22 2.84  11 2.85
                            10 2.85  24 2.86  13 2.87  35 3.01
  20  0.554  0.225  0.542-  14 2.79  36 2.80  22 2.80  11 2.80  12 2.81  19 2.81  30 2.82  27 2.83
                            21 2.83  26 2.83  23 2.84  29 2.86
  21  0.888  0.226  0.542-  34 2.78  15 2.78  24 2.79  10 2.80  12 2.81  19 2.81  30 2.83  23 2.83
                            20 2.83  25 2.83  27 2.84  28 2.86
  22  0.223  0.556  0.543-  33 2.80  20 2.80  16 2.81  23 2.81  14 2.81  13 2.82  27 2.83  25 2.83
                            19 2.84  29 2.84  24 2.85  31 2.90
  23  0.553  0.560  0.545-  30 2.76  26 2.79  25 2.79  24 2.80  22 2.81  21 2.83  20 2.84  17 2.84
                            14 2.87  15 2.87  31 2.90  32 2.97
  24  0.885  0.558  0.543-  33 2.78  21 2.79  23 2.80  26 2.81  18 2.82  15 2.82  27 2.82  28 2.83
                            13 2.84  22 2.85  19 2.86  32 2.97
  25  0.223  0.891  0.544-  34 2.78  19 2.78  26 2.79  23 2.79  21 2.83  10 2.83  22 2.83  27 2.84
                            17 2.84  16 2.86  31 2.90  35 3.00
  26  0.553  0.890  0.545-  36 2.77  19 2.79  25 2.79  23 2.79  24 2.81  20 2.83  27 2.83  11 2.86
                            17 2.86  18 2.88  32 2.96  35 2.97
  27  0.888  0.890  0.541-  12 2.78  18 2.79  16 2.79  34 2.80  36 2.82  33 2.82  24 2.82  20 2.83
                            22 2.83  26 2.83  25 2.84  21 2.84
  28  0.999  0.336  0.629-  32 2.80  33 2.80  34 2.81  19 2.81  29 2.81  30 2.82  24 2.83  21 2.86
                            35 2.88
  29  0.332  0.335  0.629-  31 2.80  36 2.81  19 2.81  28 2.81  33 2.82  30 2.82  22 2.84  20 2.86
                            35 2.87
  30  0.664  0.338  0.627-  23 2.76  34 2.79  36 2.80  29 2.82  32 2.82  20 2.82  28 2.82  21 2.83
                            31 2.83
  31  0.326  0.669  0.633-  41 2.11  33 2.78  29 2.80  35 2.81  30 2.83  34 2.84  25 2.90  23 2.90
                            22 2.90  32 2.90
  32  0.670  0.667  0.637-  38 2.15  33 2.79  35 2.80  28 2.80  30 2.82  36 2.86  31 2.90  26 2.96
                            24 2.97  23 2.97
  33  0.999  0.667  0.627-  24 2.78  31 2.78  32 2.79  22 2.80  28 2.80  29 2.82  27 2.82  36 2.83
                            34 2.85
  34  0.993  0.007  0.626-  36 2.77  21 2.78  25 2.78  30 2.79  27 2.80  28 2.81  31 2.84  33 2.85
                            35 2.88
  35  0.337  0.995  0.638-  42 2.23  40 2.26  32 2.80  31 2.81  36 2.85  29 2.87  28 2.88  34 2.88
                            26 2.97  25 3.00  19 3.01
  36  0.667  0.005  0.627-  34 2.77  26 2.77  20 2.80  30 2.80  29 2.81  27 2.82  33 2.83  35 2.85
                            32 2.86
  37  0.611  0.562  0.741-  43 1.10  44 1.11  39 1.55  38 1.55
  38  0.630  0.717  0.715-  40 1.50  50 1.53  37 1.55  32 2.15
  39  0.418  0.583  0.741-  45 1.10  46 1.11  41 1.53  37 1.55
  40  0.458  0.899  0.715-  47 1.09  42 1.43  38 1.50  35 2.26
  41  0.277  0.739  0.709-  48 1.10  42 1.49  39 1.53  31 2.11
  42  0.284  0.911  0.712-  49 1.09  40 1.43  41 1.49  35 2.23
  43  0.710  0.431  0.723-  37 1.10
  44  0.655  0.556  0.780-  37 1.11
  45  0.424  0.455  0.730-  39 1.10
  46  0.365  0.612  0.780-  39 1.11
  47  0.466  0.015  0.730-  40 1.09
  48  0.139  0.764  0.716-  41 1.10
  49  0.163  0.034  0.726-  42 1.09
  50  0.789  0.728  0.739-  51 1.10  52 1.10  53 1.11  38 1.53
  51  0.806  0.837  0.722-  50 1.10
  52  0.918  0.598  0.735-  50 1.10
  53  0.762  0.758  0.779-  50 1.11
 

IMPORTANT INFORMATION: All symmetrisations will be switched off!
NOSYMM: (Re-)initialisation of all symmetry stuff for point group C_1.

 
 
 KPOINTS: Automatic mesh                          

Automatic generation of k-mesh.
Space group operators:
 irot       det(A)        alpha          n_x          n_y          n_z        tau_x        tau_y        tau_z
    1     1.000000     0.000000     1.000000     0.000000     0.000000     0.000000     0.000000     0.000000
 
 Subroutine IBZKPT returns following result:
 ===========================================
 
 Found     34 irreducible k-points:
 
 Following reciprocal coordinates:
            Coordinates               Weight
  0.000000  0.000000  0.000000      1.000000
  0.125000  0.000000  0.000000      2.000000
  0.250000  0.000000  0.000000      2.000000
  0.375000  0.000000  0.000000      2.000000
  0.500000  0.000000  0.000000      1.000000
  0.000000  0.125000  0.000000      2.000000
  0.125000  0.125000  0.000000      2.000000
  0.250000  0.125000  0.000000      2.000000
  0.375000  0.125000  0.000000      2.000000
  0.500000  0.125000  0.000000      2.000000
 -0.375000  0.125000  0.000000      2.000000
 -0.250000  0.125000  0.000000      2.000000
 -0.125000  0.125000  0.000000      2.000000
  0.000000  0.250000  0.000000      2.000000
  0.125000  0.250000  0.000000      2.000000
  0.250000  0.250000  0.000000      2.000000
  0.375000  0.250000  0.000000      2.000000
  0.500000  0.250000  0.000000      2.000000
 -0.375000  0.250000  0.000000      2.000000
 -0.250000  0.250000  0.000000      2.000000
 -0.125000  0.250000  0.000000      2.000000
  0.000000  0.375000  0.000000      2.000000
  0.125000  0.375000  0.000000      2.000000
  0.250000  0.375000  0.000000      2.000000
  0.375000  0.375000  0.000000      2.000000
  0.500000  0.375000  0.000000      2.000000
 -0.375000  0.375000  0.000000      2.000000
 -0.250000  0.375000  0.000000      2.000000
 -0.125000  0.375000  0.000000      2.000000
  0.000000  0.500000  0.000000      1.000000
  0.125000  0.500000  0.000000      2.000000
  0.250000  0.500000  0.000000      2.000000
  0.375000  0.500000  0.000000      2.000000
  0.500000  0.500000  0.000000      1.000000
 
 Following cartesian coordinates:
            Coordinates               Weight
  0.000000  0.000000  0.000000      1.000000
  0.014783 -0.008535  0.000000      2.000000
  0.029566 -0.017070  0.000000      2.000000
  0.044349 -0.025605  0.000000      2.000000
  0.059133 -0.034140  0.000000      1.000000
  0.000000  0.017070  0.000000      2.000000
  0.014783  0.008535  0.000000      2.000000
  0.029566 -0.000000  0.000000      2.000000
  0.044349 -0.008535  0.000000      2.000000
  0.059133 -0.017070  0.000000      2.000000
 -0.044349  0.042675  0.000000      2.000000
 -0.029566  0.034140  0.000000      2.000000
 -0.014783  0.025605  0.000000      2.000000
  0.000000  0.034140  0.000000      2.000000
  0.014783  0.025605  0.000000      2.000000
  0.029566  0.017070  0.000000      2.000000
  0.044349  0.008535  0.000000      2.000000
  0.059133 -0.000000  0.000000      2.000000
 -0.044349  0.059745  0.000000      2.000000
 -0.029566  0.051210  0.000000      2.000000
 -0.014783  0.042675  0.000000      2.000000
  0.000000  0.051210  0.000000      2.000000
  0.014783  0.042675  0.000000      2.000000
  0.029566  0.034140  0.000000      2.000000
  0.044349  0.025605  0.000000      2.000000
  0.059133  0.017070  0.000000      2.000000
 -0.044349  0.076815  0.000000      2.000000
 -0.029566  0.068280  0.000000      2.000000
 -0.014783  0.059745  0.000000      2.000000
  0.000000  0.068280  0.000000      1.000000
  0.014783  0.059745  0.000000      2.000000
  0.029566  0.051210  0.000000      2.000000
  0.044349  0.042675  0.000000      2.000000
  0.059133  0.034140  0.000000      1.000000
 


--------------------------------------------------------------------------------------------------------




 Dimension of arrays:
   k-points           NKPTS =     34   k-points in BZ     NKDIM =     34   number of bands    NBANDS=    238
   number of dos      NEDOS =    301   number of ions     NIONS =     53
   non local maximal  LDIM  =      6   non local SUM 2l+1 LMDIM =     18
   total plane-waves  NPLWV = 246960
   max r-space proj   IRMAX =   2214   max aug-charges    IRDMAX=   9178
   dimension x,y,z NGX =    42 NGY =   42 NGZ =  140
   dimension x,y,z NGXF=    84 NGYF=   84 NGZF=  280
   support grid    NGXF=    84 NGYF=   84 NGZF=  280
   ions per type =              36   6   7   1   3
   NGX,Y,Z   is equivalent  to a cutoff of   8.26,  8.26,  8.65 a.u.
   NGXF,Y,Z  is equivalent  to a cutoff of  16.52, 16.52, 17.30 a.u.

 SYSTEM =  unknown system                          
 POSCAR =  Pt                                      

 Startparameter for this run:
   NWRITE =      2    write-flag & timer
   PREC   = normal    normal or accurate (medium, high low for compatibility)
   ISTART =      0    job   : 0-new  1-cont  2-samecut
   ICHARG =      2    charge: 1-file 2-atom 10-const
   ISPIN  =      1    spin polarized calculation?
   LNONCOLLINEAR =      F non collinear calculations
   LSORBIT =      F    spin-orbit coupling
   INIWAV =      1    electr: 0-lowe 1-rand  2-diag
   LASPH  =      F    aspherical Exc in radial PAW
   METAGGA=      F    non-selfconsistent MetaGGA calc.

 Electronic Relaxation 1
   ENCUT  =  396.0 eV  29.11 Ry    5.39 a.u.  13.72 13.72 43.65*2*pi/ulx,y,z
   ENINI  =  396.0     initial cutoff
   ENAUG  =  644.9 eV  augmentation charge cutoff
   NELM   =     80;   NELMIN=  2; NELMDL= -5     # of ELM steps 
   EDIFF  = 0.1E-05   stopping-criterion for ELM
   LREAL  =      T    real-space projection
   NLSPLINE    = F    spline interpolate recip. space projectors
   LCOMPAT=      F    compatible to vasp.4.4
   GGA_COMPAT  = T    GGA compatible to vasp.4.4-vasp.4.6
   LMAXPAW     = -100 max onsite density
   LMAXMIX     =    2 max onsite mixed and CHGCAR
   VOSKOWN=      0    Vosko Wilk Nusair interpolation
   ROPT   =   -0.00050  -0.00050  -0.00050  -0.00050
   ROPT   =   -0.00050
 Ionic relaxation
   EDIFFG = -.1E+00   stopping-criterion for IOM
   NSW    =    200    number of steps for IOM
   NBLOCK =      1;   KBLOCK =    200    inner block; outer block 
   IBRION =      2    ionic relax: 0-MD 1-quasi-New 2-CG
   NFREE  =      1    steps in history (QN), initial steepest desc. (CG)
   ISIF   =      0    stress and relaxation
   IWAVPR =     11    prediction:  0-non 1-charg 2-wave 3-comb
   ISYM   =      0    0-nonsym 1-usesym 2-fastsym
   LCORR  =      T    Harris-Foulkes like correction to forces

   POTIM  = 0.1000    time-step for ionic-motion
   TEIN   =    0.0    initial temperature
   TEBEG  =    0.0;   TEEND  =   0.0 temperature during run
   SMASS  =  -3.00    Nose mass-parameter (am)
   estimated Nose-frequenzy (Omega)   =  0.10E-29 period in steps =****** mass=  -0.163E-26a.u.
   SCALEE = 1.0000    scale energy and forces
   NPACO  =    256;   APACO  = 16.0  distance and # of slots for P.C.
   PSTRESS=    0.0 pullay stress

  Mass of Ions in am
   POMASS = 195.08 12.01  1.00 12.01  1.00
  Ionic Valenz
   ZVAL   =  10.00  4.00  1.00  4.00  1.00
  Atomic Wigner-Seitz radii
   RWIGS  =  -1.00 -1.00 -1.00 -1.00 -1.00
  virtual crystal weights 
   VCA    =   1.00  1.00  1.00  1.00  1.00
   NELECT =     398.0000    total number of electrons
   NUPDOWN=      -1.0000    fix difference up-down

 DOS related values:
   EMIN   =  10.00;   EMAX   =-10.00  energy-range for DOS
   EFERMI =   0.00
   ISMEAR =     2;   SIGMA  =   0.20  broadening in eV -4-tet -1-fermi 0-gaus

 Electronic relaxation 2 (details)
   IALGO  =     68    algorithm
   LDIAG  =      T    sub-space diagonalisation (order eigenvalues)
   LSUBROT=      F    optimize rotation matrix (better conditioning)
   TURBO    =      0    0=normal 1=particle mesh
   IRESTART =      0    0=no restart 2=restart with 2 vectors
   NREBOOT  =      0    no. of reboots
   NMIN     =      0    reboot dimension
   EREF     =   0.00    reference energy to select bands
   IMIX   =      4    mixing-type and parameters
     AMIX     =   0.40;   BMIX     =  4.00
     AMIX_MAG =   1.60;   BMIX_MAG =  4.00
     AMIN     =   0.10
     WC   =   100.;   INIMIX=   1;  MIXPRE=   1;  MAXMIX=  80

 Intra band minimization:
   WEIMIN = 0.0010     energy-eigenvalue tresh-hold
   EBREAK =  0.11E-08  absolut break condition
   DEPER  =   0.30     relativ break condition  

   TIME   =   0.40     timestep for ELM

  volume/ion in A,a.u.               =      31.43       212.11
  Fermi-wavevector in a.u.,A,eV,Ry     =   1.015838  1.919656 14.040225  1.031927
  Thomas-Fermi vector in A             =   2.149147
 
 Write flags
   LWAVE        =      T    write WAVECAR
   LDOWNSAMPLE  =      F    k-point downsampling of WAVECAR
   LCHARG       =      T    write CHGCAR
   LVTOT        =      F    write LOCPOT, total local potential
   LVHAR        =      F    write LOCPOT, Hartree potential only
   LELF         =      F    write electronic localiz. function (ELF)
   LORBIT       =      0    0 simple, 1 ext, 2 COOP (PROOUT), +10 PAW based schemes


 Dipole corrections
   LMONO  =      F    monopole corrections only (constant potential shift)
   LDIPOL =      F    correct potential (dipole corrections)
   IDIPOL =      0    1-x, 2-y, 3-z, 4-all directions 
   EPSILON=  1.0000000 bulk dielectric constant

 Exchange correlation treatment:
   GGA     =    OR    GGA type
   LEXCH   =    41    internal setting for exchange type
   VOSKOWN=      0    Vosko Wilk Nusair interpolation
   LHFCALC =     F    Hartree Fock is set to
   LHFONE  =     F    Hartree Fock one center treatment
   AEXX    =    0.0000 exact exchange contribution

 vdW DFT:
   LUSE_VDW   =     T    switch on vdW DFT
   Zab_VDW    =-.8491    correlation parameter
   PARAM1     =0.1234
   PARAM2     =1.0000
   PARAM3     =0.0000
   -- rVV10 --
   BPARAM     = 6.3000
   CPARAM     = 0.0093

 Linear response parameters
   LEPSILON=     F    determine dielectric tensor
   LRPA    =     F    only Hartree local field effects (RPA)
   LNABLA  =     F    use nabla operator in PAW spheres
   LVEL    =     F    velocity operator in full k-point grid
   LINTERFAST=   F  fast interpolation
   KINTER  =     0    interpolate to denser k-point grid
   CSHIFT  =0.1000    complex shift for real part using Kramers Kronig
   OMEGAMAX=  -1.0    maximum frequency
   DEG_THRESHOLD= 0.2000000E-02 threshold for treating states as degnerate
   RTIME   =   -0.100 relaxation time in fs
  (WPLASMAI=    0.000 imaginary part of plasma frequency in eV, 0.658/RTIME)
   DFIELD  = 0.0000000 0.0000000 0.0000000 field for delta impulse in time
 
 Orbital magnetization related:
   ORBITALMAG=     F  switch on orbital magnetization
   LCHIMAG   =     F  perturbation theory with respect to B field
   DQ        =  0.001000  dq finite difference perturbation B field
   LLRAUG    =     F  two centre corrections for induced B field



--------------------------------------------------------------------------------------------------------


 conjugate gradient relaxation of ions
   using selective dynamics as specified on POSCAR
 charge density and potential will be updated during run
 non-spin polarized calculation
 RMM-DIIS sequential band-by-band and
  variant of blocked Davidson during initial phase
 perform sub-space diagonalisation
    before iterative eigenvector-optimisation
 modified Broyden-mixing scheme, WC =      100.0
 initial mixing is a Kerker type mixing with AMIX =  0.4000 and BMIX =      4.0000
 Hartree-type preconditioning will be used
 using additional bands           39
 real space projection scheme for non local part
 use partial core corrections
 calculate Harris-corrections to forces 
   (improved forces if not selfconsistent)
 use gradient corrections 
 use of overlap-Matrix (Vanderbilt PP)
 Methfessel and Paxton  Order N= 2 SIGMA  =   0.20


--------------------------------------------------------------------------------------------------------


  energy-cutoff  :      396.00
  volume of cell :     1665.84
      direct lattice vectors                 reciprocal lattice vectors
     8.455582619  0.000000000  0.000000000     0.118265062 -0.068280376  0.000000000
     4.227791797  7.322749070  0.000000000     0.000000000  0.136560736  0.000000000
     0.000000000  0.000000000 26.903955460     0.000000000  0.000000000  0.037169256

  length of vectors
     8.455582619  8.455582619 26.903955460     0.136560736  0.136560736  0.037169256


 
 k-points in units of 2pi/SCALE and weight: Automatic mesh                          
   0.00000000  0.00000000  0.00000000       0.016
   0.01478313 -0.00853505  0.00000000       0.031
   0.02956627 -0.01707009  0.00000000       0.031
   0.04434940 -0.02560514  0.00000000       0.031
   0.05913253 -0.03414019  0.00000000       0.016
   0.00000000  0.01707009  0.00000000       0.031
   0.01478313  0.00853504  0.00000000       0.031
   0.02956627 -0.00000000  0.00000000       0.031
   0.04434940 -0.00853505  0.00000000       0.031
   0.05913253 -0.01707010  0.00000000       0.031
  -0.04434940  0.04267523  0.00000000       0.031
  -0.02956627  0.03414019  0.00000000       0.031
  -0.01478313  0.02560514  0.00000000       0.031
   0.00000000  0.03414018  0.00000000       0.031
   0.01478313  0.02560514  0.00000000       0.031
   0.02956627  0.01707009  0.00000000       0.031
   0.04434940  0.00853504  0.00000000       0.031
   0.05913253 -0.00000000  0.00000000       0.031
  -0.04434940  0.05974532  0.00000000       0.031
  -0.02956627  0.05121028  0.00000000       0.031
  -0.01478313  0.04267523  0.00000000       0.031
   0.00000000  0.05121028  0.00000000       0.031
   0.01478313  0.04267523  0.00000000       0.031
   0.02956627  0.03414018  0.00000000       0.031
   0.04434940  0.02560513  0.00000000       0.031
   0.05913253  0.01707009  0.00000000       0.031
  -0.04434940  0.07681542  0.00000000       0.031
  -0.02956627  0.06828037  0.00000000       0.031
  -0.01478313  0.05974532  0.00000000       0.031
   0.00000000  0.06828037  0.00000000       0.016
   0.01478313  0.05974532  0.00000000       0.031
   0.02956627  0.05121027  0.00000000       0.031
   0.04434940  0.04267523  0.00000000       0.031
   0.05913253  0.03414018  0.00000000       0.016
 
 k-points in reciprocal lattice and weights: Automatic mesh                          
   0.00000000  0.00000000  0.00000000       0.016
   0.12500000  0.00000000  0.00000000       0.031
   0.25000000  0.00000000  0.00000000       0.031
   0.37500000  0.00000000  0.00000000       0.031
   0.50000000  0.00000000  0.00000000       0.016
   0.00000000  0.12500000  0.00000000       0.031
   0.12500000  0.12500000  0.00000000       0.031
   0.25000000  0.12500000  0.00000000       0.031
   0.37500000  0.12500000  0.00000000       0.031
   0.50000000  0.12500000  0.00000000       0.031
  -0.37500000  0.12500000  0.00000000       0.031
  -0.25000000  0.12500000  0.00000000       0.031
  -0.12500000  0.12500000  0.00000000       0.031
   0.00000000  0.25000000  0.00000000       0.031
   0.12500000  0.25000000  0.00000000       0.031
   0.25000000  0.25000000  0.00000000       0.031
   0.37500000  0.25000000  0.00000000       0.031
   0.50000000  0.25000000  0.00000000       0.031
  -0.37500000  0.25000000  0.00000000       0.031
  -0.25000000  0.25000000  0.00000000       0.031
  -0.12500000  0.25000000  0.00000000       0.031
   0.00000000  0.37500000  0.00000000       0.031
   0.12500000  0.37500000  0.00000000       0.031
   0.25000000  0.37500000  0.00000000       0.031
   0.37500000  0.37500000  0.00000000       0.031
   0.50000000  0.37500000  0.00000000       0.031
  -0.37500000  0.37500000  0.00000000       0.031
  -0.25000000  0.37500000  0.00000000       0.031
  -0.12500000  0.37500000  0.00000000       0.031
   0.00000000  0.50000000  0.00000000       0.016
   0.12500000  0.50000000  0.00000000       0.031
   0.25000000  0.50000000  0.00000000       0.031
   0.37500000  0.50000000  0.00000000       0.031
   0.50000000  0.50000000  0.00000000       0.016
 
 position of ions in fractional coordinates (direct lattice) 
   0.00000000  0.00000000  0.37169256
   0.33333362  0.00000000  0.37169256
   0.66666725  0.00000000  0.37169256
   0.99999929  0.33333383  0.37169256
   0.33333291  0.33333383  0.37169256
   0.66666653  0.33333383  0.37169256
   0.00000044  0.66666630  0.37169256
   0.33333406  0.66666630  0.37169256
   0.66666650  0.66666630  0.37169256
   0.11111058  0.11111128  0.45723091
   0.44444420  0.11111128  0.45723091
   0.77777782  0.11111128  0.45723091
   0.11111173  0.44444374  0.45723091
   0.44444417  0.44444374  0.45723091
   0.77777779  0.44444374  0.45723091
   0.11111101  0.77777757  0.45723091
   0.44444464  0.77777757  0.45723091
   0.77777826  0.77777757  0.45723091
   0.22360046  0.21978625  0.54459161
   0.55373560  0.22458923  0.54195037
   0.88800338  0.22570510  0.54190914
   0.22261106  0.55601522  0.54255811
   0.55305175  0.56013756  0.54457072
   0.88532590  0.55754586  0.54321190
   0.22293892  0.89105666  0.54390643
   0.55307759  0.89018762  0.54493051
   0.88788462  0.89002933  0.54142235
   0.99928834  0.33557104  0.62942641
   0.33235189  0.33505451  0.62947516
   0.66415881  0.33780311  0.62748332
   0.32630741  0.66882782  0.63287019
   0.67020073  0.66719183  0.63663413
   0.99859877  0.66731167  0.62690850
   0.99307474  0.00652545  0.62622409
   0.33663298  0.99517385  0.63849055
   0.66665286  0.00538808  0.62715403
   0.61079750  0.56198518  0.74062910
   0.62990032  0.71666591  0.71515311
   0.41830920  0.58308132  0.74109331
   0.45792336  0.89916965  0.71500538
   0.27702474  0.73867597  0.70894405
   0.28387769  0.91106901  0.71241552
   0.71043912  0.43099640  0.72349282
   0.65529623  0.55588784  0.77957941
   0.42426059  0.45460610  0.73001528
   0.36459094  0.61199440  0.77961722
   0.46636401  0.01522675  0.72986549
   0.13853716  0.76409886  0.71630873
   0.16308807  0.03375071  0.72627528
   0.78899049  0.72796151  0.73856429
   0.80595119  0.83708860  0.72173562
   0.91791130  0.59776549  0.73464911
   0.76156757  0.75755341  0.77878324
 
 position of ions in cartesian coordinates  (Angst):
   0.00000000  0.00000000 10.00000000
   2.81853000  0.00000000 10.00000000
   5.63706000  0.00000000 10.00000000
   9.86484262  2.44092000 10.00000000
   4.22779000  2.44092000 10.00000000
   7.04632000  2.44092000 10.00000000
   2.81853000  4.88183000 10.00000000
   5.63706000  4.88183000 10.00000000
   8.45558000  4.88183000 10.00000000
   1.40926000  0.81364000 12.30132000
   4.22779000  0.81364000 12.30132000
   7.04632000  0.81364000 12.30132000
   2.81853000  3.25455000 12.30132000
   5.63705000  3.25455000 12.30132000
   8.45558000  3.25455000 12.30132000
   4.22779000  5.69547000 12.30132000
   7.04632000  5.69547000 12.30132000
   9.86485000  5.69547000 12.30132000
   2.81988268  1.60943958 14.65166851
   5.63167364  1.64461059 14.58060864
   8.46282012  1.65278179 14.57949930
   4.23302282  4.07155990 14.59695926
   7.04451974  4.10174680 14.65110633
   9.84313407  4.08276843 14.61454889
   5.65228049  6.52498433 14.63323431
   8.44012120  6.51862059 14.66078617
  11.27044043  6.51746145 14.56640277
   9.86828965  2.45730253 16.93406016
   4.22676960  2.45352010 16.93537159
   7.04401090  2.47364740 16.88178320
   5.58678409  4.89765832 17.02671145
   8.48768581  4.88567832 17.12797622
  11.26498921  4.88655593 16.86631825
   8.42461372  0.04778424 16.84790501
   7.05381583  7.28740837 17.17792134
   5.65971805  0.03945557 16.87292410
   7.54060508  4.11527642 19.92585235
   8.35608846  5.24796460 19.24044732
   6.00219444  4.26975816 19.93834151
   7.67351092  6.58439373 19.23647300
   5.46537375  5.40913875 19.07339916
   6.25216135  6.67152971 19.16679540
   7.82933971  3.15607851 19.46481850
   7.89108950  4.07062716 20.97376960
   5.50935042  3.32896642 19.64029868
   5.67021372  4.48148144 20.97478709
   4.00775495  0.11150167 19.63626864
   4.40186325  5.59530419 19.27153816
   1.52169565  0.24714797 19.53967778
   9.74904392  5.33067944 19.87030078
  10.35382317  6.12978979 19.41754298
  10.28870283  4.37728667 19.76496696
   9.64227559  5.54737353 20.95234952
 


--------------------------------------------------------------------------------------------------------


 k-point  1 :   0.0000 0.0000 0.0000  plane waves:   29865
 k-point  2 :   0.1250 0.0000 0.0000  plane waves:   29830
 k-point  3 :   0.2500 0.0000 0.0000  plane waves:   29798
 k-point  4 :   0.3750 0.0000 0.0000  plane waves:   29786
 k-point  5 :   0.5000 0.0000 0.0000  plane waves:   29806
 k-point  6 :   0.0000 0.1250 0.0000  plane waves:   29830
 k-point  7 :   0.1250 0.1250 0.0000  plane waves:   29830
 k-point  8 :   0.2500 0.1250 0.0000  plane waves:   29817
 k-point  9 :   0.3750 0.1250 0.0000  plane waves:   29820
 k-point 10 :   0.5000 0.1250 0.0000  plane waves:   29812
 k-point 11 :  -0.3750 0.1250 0.0000  plane waves:   29812
 k-point 12 :  -0.2500 0.1250 0.0000  plane waves:   29820
 k-point 13 :  -0.1250 0.1250 0.0000  plane waves:   29817
 k-point 14 :   0.0000 0.2500 0.0000  plane waves:   29798
 k-point 15 :   0.1250 0.2500 0.0000  plane waves:   29817
 k-point 16 :   0.2500 0.2500 0.0000  plane waves:   29798
 k-point 17 :   0.3750 0.2500 0.0000  plane waves:   29820
 k-point 18 :   0.5000 0.2500 0.0000  plane waves:   29770
 k-point 19 :  -0.3750 0.2500 0.0000  plane waves:   29794
 k-point 20 :  -0.2500 0.2500 0.0000  plane waves:   29770
 k-point 21 :  -0.1250 0.2500 0.0000  plane waves:   29820
 k-point 22 :   0.0000 0.3750 0.0000  plane waves:   29786
 k-point 23 :   0.1250 0.3750 0.0000  plane waves:   29820
 k-point 24 :   0.2500 0.3750 0.0000  plane waves:   29820
 k-point 25 :   0.3750 0.3750 0.0000  plane waves:   29786
 k-point 26 :   0.5000 0.3750 0.0000  plane waves:   29812
 k-point 27 :  -0.3750 0.3750 0.0000  plane waves:   29794
 k-point 28 :  -0.2500 0.3750 0.0000  plane waves:   29794
 k-point 29 :  -0.1250 0.3750 0.0000  plane waves:   29812
 k-point 30 :   0.0000 0.5000 0.0000  plane waves:   29806
 k-point 31 :   0.1250 0.5000 0.0000  plane waves:   29812
 k-point 32 :   0.2500 0.5000 0.0000  plane waves:   29770
 k-point 33 :   0.3750 0.5000 0.0000  plane waves:   29812
 k-point 34 :   0.5000 0.5000 0.0000  plane waves:   29806

 maximum and minimum number of plane-waves per node :     29865    29770

 maximum number of plane-waves:     29865
 maximum index in each direction: 
   IXMAX=   14   IYMAX=   13   IZMAX=   43
   IXMIN=  -14   IYMIN=  -14   IZMIN=  -43


 serial   3D FFT for wavefunctions
 parallel 3D FFT for charge:
    minimum data exchange during FFTs selected (reduces bandwidth)


 total amount of memory used by VASP MPI-rank0  4246798. kBytes
=======================================================================

   base      :      30000. kBytes
   nonlr-proj:      15127. kBytes
   fftplans  :      67680. kBytes
   grid      :     168864. kBytes
   one-center:        824. kBytes
   wavefun   :    3964303. kBytes
 
     INWAV:  cpu time    0.0000: real time    0.0002
 Broyden mixing: mesh for mixing (old mesh)
   NGX = 27   NGY = 27   NGZ = 87
  (NGX  = 84   NGY  = 84   NGZ  =280)
  gives a total of  63423 points

 initial charge density was supplied:
 charge density of overlapping atoms calculated
 number of electron     398.0000000 magnetization 
 keeping initial charge density in first step


--------------------------------------------------------------------------------------------------------


 Maximum index for non-local projection operator         2113
 Maximum index for augmentation-charges         8743 (set IRDMAX)


--------------------------------------------------------------------------------------------------------


 First call to EWALD:  gamma=   0.150
 Maximum number of real-space cells 4x 4x 1
 Maximum number of reciprocal cells 2x 2x 6

    FEWALD:  cpu time    0.6848: real time    0.0230


----------------------------------------- Iteration    1(   1)  ---------------------------------------


vdW kernel read from vdw_kernel.bindat
  0.0000  0.2424  0.5071  0.7962  1.1119  1.4567  1.8333  2.2446  2.6937  3.1842
  3.7199  4.3049  4.9438  5.6415  6.4036  7.2358  8.1446  9.1372 10.2212 11.4050
 12.6979 14.1099 15.6519 17.3360 19.1751 21.1837 23.3773 25.7729 28.3892 31.2465
 34.3669 37.7748 41.4965 45.5611 50.0000
 
    POTLOK:  cpu time   47.3628: real time   47.3987
    SETDIJ:  cpu time    0.1548: real time    0.1547
     EDDAV:  cpu time 1320.3287: real time   48.0329
       DOS:  cpu time    1.2830: real time    0.0476
    --------------------------------------------
      LOOP:  cpu time 1371.8078: real time   97.5360

 eigenvalue-minimisations  : 16264
 total energy-change (2. order) : 0.3543927E+04  (-0.1430340E+05)
 number of electron     398.0000000 magnetization 
 augmentation part      398.0000000 magnetization 

 Free energy of the ion-electron system (eV)
  ---------------------------------------------------
  alpha Z        PSCENC =      1291.30091626
  Ewald energy   TEWEN  =    162496.25963858
  -Hartree energ DENC   =   -191189.40110572
  -exchange      EXHF   =         0.00000000
  -V(xc)+E(xc)   XCENC  =       210.90191664
  PAW double counting   =     20937.26823060   -19892.17539578
  entropy T*S    EENTRO =        -0.00115214
  eigenvalues    EBANDS =      2207.52024037
  atomic energy  EATOM  =     27482.25343317
  Solvation  Ediel_sol  =         0.00000000
  ---------------------------------------------------
  free energy    TOTEN  =      3543.92672197 eV

  energy without entropy =     3543.92787411  energy(sigma->0) =     3543.92701000


--------------------------------------------------------------------------------------------------------




----------------------------------------- Iteration    1(   2)  ---------------------------------------


     EDDAV:  cpu time 1381.3352: real time   48.0418
       DOS:  cpu time    1.4667: real time    0.0506
    --------------------------------------------
      LOOP:  cpu time 1382.8309: real time   48.0935

 eigenvalue-minimisations  : 16892
 total energy-change (2. order) :-0.3345559E+04  (-0.3075343E+04)
 number of electron     398.0000000 magnetization 
 augmentation part      398.0000000 magnetization 

 Free energy of the ion-electron system (eV)
  ---------------------------------------------------
  alpha Z        PSCENC =      1291.30091626
  Ewald energy   TEWEN  =    162496.25963858
  -Hartree energ DENC   =   -191189.40110572
  -exchange      EXHF   =         0.00000000
  -V(xc)+E(xc)   XCENC  =       210.90191664
  PAW double counting   =     20937.26823060   -19892.17539578
  entropy T*S    EENTRO =         0.00077406
  eigenvalues    EBANDS =     -1138.04091161
  atomic energy  EATOM  =     27482.25343317
  Solvation  Ediel_sol  =         0.00000000
  ---------------------------------------------------
  free energy    TOTEN  =       198.36749620 eV

  energy without entropy =      198.36672213  energy(sigma->0) =      198.36730268


--------------------------------------------------------------------------------------------------------




----------------------------------------- Iteration    1(   3)  ---------------------------------------


     EDDAV:  cpu time 1624.7146: real time   56.1098
       DOS:  cpu time    1.6418: real time    0.0579
    --------------------------------------------
      LOOP:  cpu time 1626.3829: real time   56.1686

 eigenvalue-minimisations  : 21664
 total energy-change (2. order) :-0.4326358E+03  (-0.4023939E+03)
 number of electron     398.0000000 magnetization 
 augmentation part      398.0000000 magnetization 

 Free energy of the ion-electron system (eV)
  ---------------------------------------------------
  alpha Z        PSCENC =      1291.30091626
  Ewald energy   TEWEN  =    162496.25963858
  -Hartree energ DENC   =   -191189.40110572
  -exchange      EXHF   =         0.00000000
  -V(xc)+E(xc)   XCENC  =       210.90191664
  PAW double counting   =     20937.26823060   -19892.17539578
  entropy T*S    EENTRO =        -0.00260073
  eigenvalues    EBANDS =     -1570.67338058
  atomic energy  EATOM  =     27482.25343317
  Solvation  Ediel_sol  =         0.00000000
  ---------------------------------------------------
  free energy    TOTEN  =      -234.26834757 eV

  energy without entropy =     -234.26574684  energy(sigma->0) =     -234.26769738


--------------------------------------------------------------------------------------------------------




----------------------------------------- Iteration    1(   4)  ---------------------------------------


     EDDAV:  cpu time 1756.9110: real time   60.8951
       DOS:  cpu time    1.8904: real time    0.0658
    --------------------------------------------
      LOOP:  cpu time 1758.8542: real time   60.9627

 eigenvalue-minimisations  : 23752
 total energy-change (2. order) :-0.3482951E+02  (-0.3139314E+02)
 number of electron     398.0000000 magnetization 
 augmentation part      398.0000000 magnetization 

 Free energy of the ion-electron system (eV)
  ---------------------------------------------------
  alpha Z        PSCENC =      1291.30091626
  Ewald energy   TEWEN  =    162496.25963858
  -Hartree energ DENC   =   -191189.40110572
  -exchange      EXHF   =         0.00000000
  -V(xc)+E(xc)   XCENC  =       210.90191664
  PAW double counting   =     20937.26823060   -19892.17539578
  entropy T*S    EENTRO =        -0.07034294
  eigenvalues    EBANDS =     -1605.43514573
  atomic energy  EATOM  =     27482.25343317
  Solvation  Ediel_sol  =         0.00000000
  ---------------------------------------------------
  free energy    TOTEN  =      -269.09785493 eV

  energy without entropy =     -269.02751198  energy(sigma->0) =     -269.08026919


--------------------------------------------------------------------------------------------------------




----------------------------------------- Iteration    1(   5)  ---------------------------------------


     EDDAV:  cpu time 1632.9337: real time   58.3697
       DOS:  cpu time    1.9125: real time    0.0676
    CHARGE:  cpu time   18.0912: real time   16.8958
    MIXING:  cpu time    0.0542: real time    0.0543
    --------------------------------------------
      LOOP:  cpu time 1653.0167: real time   75.3883

 eigenvalue-minimisations  : 22280
 total energy-change (2. order) :-0.1228186E+01  (-0.1192651E+01)
 number of electron     397.9999896 magnetization 
 augmentation part      106.3705627 magnetization 

 Broyden mixing:
  rms(total) = 0.27996E+01    rms(broyden)= 0.27990E+01
  rms(prec ) = 0.30366E+01
  weight for this iteration     100.00

 Free energy of the ion-electron system (eV)
  ---------------------------------------------------
  alpha Z        PSCENC =      1291.30091626
  Ewald energy   TEWEN  =    162496.25963858
  -Hartree energ DENC   =   -191189.40110572
  -exchange      EXHF   =         0.00000000
  -V(xc)+E(xc)   XCENC  =       210.90191664
  PAW double counting   =     20937.26823060   -19892.17539578
  entropy T*S    EENTRO =        -0.07121665
  eigenvalues    EBANDS =     -1606.66245756
  atomic energy  EATOM  =     27482.25343317
  Solvation  Ediel_sol  =         0.00000000
  ---------------------------------------------------
  free energy    TOTEN  =      -270.32604047 eV

  energy without entropy =     -270.25482382  energy(sigma->0) =     -270.30823631


--------------------------------------------------------------------------------------------------------




----------------------------------------- Iteration    1(   6)  ---------------------------------------


    POTLOK:  cpu time   46.4440: real time   46.4504
    SETDIJ:  cpu time    0.1556: real time    0.1556
    EDDIAG:  cpu time  168.7587: real time   10.1214
  RMM-DIIS:  cpu time 1203.1811: real time   44.7602
    ORTHCH:  cpu time  148.6449: real time    5.2978
       DOS:  cpu time    3.1659: real time    0.1040
    CHARGE:  cpu time   16.9519: real time   16.7286
    MIXING:  cpu time    0.0583: real time    0.0583
    --------------------------------------------
      LOOP:  cpu time 1587.3793: real time  123.6777

 eigenvalue-minimisations  : 18255
 total energy-change (2. order) : 0.8576292E+01  (-0.1578666E+01)
 number of electron     397.9999921 magnetization 
 augmentation part      109.0514303 magnetization 

 Broyden mixing:
  rms(total) = 0.22076E+01    rms(broyden)= 0.22073E+01
  rms(prec ) = 0.26470E+01
  weight for this iteration     100.00

 eigenvalues of (default mixing * dielectric matrix)
  average eigenvalue GAMMA=   1.0395
  1.0395

 Free energy of the ion-electron system (eV)
  ---------------------------------------------------
  alpha Z        PSCENC =      1291.30091626
  Ewald energy   TEWEN  =    162496.25963858
  -Hartree energ DENC   =   -190850.11132801
  -exchange      EXHF   =         0.00000000
  -V(xc)+E(xc)   XCENC  =       208.68238217
  PAW double counting   =     20908.77445639   -19908.76261575
  entropy T*S    EENTRO =        -0.00197963
  eigenvalues    EBANDS =     -1890.14465198
  atomic energy  EATOM  =     27482.25343317
  Solvation  Ediel_sol  =         0.00000000
  ---------------------------------------------------
  free energy    TOTEN  =      -261.74974882 eV

  energy without entropy =     -261.74776919  energy(sigma->0) =     -261.74925391


--------------------------------------------------------------------------------------------------------




----------------------------------------- Iteration    1(   7)  ---------------------------------------


    POTLOK:  cpu time   47.4994: real time   47.5635
    SETDIJ:  cpu time    0.1623: real time    0.1623
    EDDIAG:  cpu time  167.0396: real time    9.3746
  RMM-DIIS:  cpu time 1240.2003: real time   46.5895
    ORTHCH:  cpu time  130.2249: real time    4.6932
       DOS:  cpu time    3.0367: real time    0.1193
    CHARGE:  cpu time   17.0897: real time   17.1002
    MIXING:  cpu time    0.0471: real time    0.0471
    --------------------------------------------
      LOOP:  cpu time 1605.3083: real time  125.6510

 eigenvalue-minimisations  : 17973
 total energy-change (2. order) :-0.8621926E+01  (-0.1968176E+01)
 number of electron     397.9999910 magnetization 
 augmentation part      108.2235531 magnetization 

 Broyden mixing:
  rms(total) = 0.27023E+01    rms(broyden)= 0.27021E+01
  rms(prec ) = 0.42434E+01
  weight for this iteration     100.00

 eigenvalues of (default mixing * dielectric matrix)
  average eigenvalue GAMMA=   0.9463
  1.6651  0.2274

 Free energy of the ion-electron system (eV)
  ---------------------------------------------------
  alpha Z        PSCENC =      1291.30091626
  Ewald energy   TEWEN  =    162496.25963858
  -Hartree energ DENC   =   -191017.02703418
  -exchange      EXHF   =         0.00000000
  -V(xc)+E(xc)   XCENC  =       207.97176541
  PAW double counting   =     21031.59817838   -20046.31272051
  entropy T*S    EENTRO =        -0.03400919
  eigenvalues    EBANDS =     -1716.38184305
  atomic energy  EATOM  =     27482.25343317
  Solvation  Ediel_sol  =         0.00000000
  ---------------------------------------------------
  free energy    TOTEN  =      -270.37167514 eV

  energy without entropy =     -270.33766595  energy(sigma->0) =     -270.36317284


--------------------------------------------------------------------------------------------------------




----------------------------------------- Iteration    1(   8)  ---------------------------------------


    POTLOK:  cpu time   48.1145: real time   48.1150
    SETDIJ:  cpu time    0.1145: real time    0.1145
    EDDIAG:  cpu time  180.1131: real time    9.4197
  RMM-DIIS:  cpu time 1232.0627: real time   45.7795
    ORTHCH:  cpu time  148.1674: real time    5.1564
       DOS:  cpu time    2.8544: real time    0.1114
    CHARGE:  cpu time   16.9754: real time   16.9748
    MIXING:  cpu time    0.0687: real time    0.0687
    --------------------------------------------
      LOOP:  cpu time 1628.4873: real time  125.7416

 eigenvalue-minimisations  : 18105
 total energy-change (2. order) : 0.2748597E+01  (-0.1572857E+01)
 number of electron     397.9999863 magnetization 
 augmentation part      109.1624097 magnetization 

 Broyden mixing:
  rms(total) = 0.25406E+01    rms(broyden)= 0.25403E+01
  rms(prec ) = 0.38408E+01
  weight for this iteration     100.00

 eigenvalues of (default mixing * dielectric matrix)
  average eigenvalue GAMMA=   1.0133
  2.5550  0.3352  0.1496

 Free energy of the ion-electron system (eV)
  ---------------------------------------------------
  alpha Z        PSCENC =      1291.30091626
  Ewald energy   TEWEN  =    162496.25963858
  -Hartree energ DENC   =   -191077.99848481
  -exchange      EXHF   =         0.00000000
  -V(xc)+E(xc)   XCENC  =       207.21252058
  PAW double counting   =     21113.31214239   -20141.86221087
  entropy T*S    EENTRO =        -0.02126018
  eigenvalues    EBANDS =     -1638.07977343
  atomic energy  EATOM  =     27482.25343317
  Solvation  Ediel_sol  =         0.00000000
  ---------------------------------------------------
  free energy    TOTEN  =      -267.62307831 eV

  energy without entropy =     -267.60181813  energy(sigma->0) =     -267.61776327


--------------------------------------------------------------------------------------------------------




----------------------------------------- Iteration    1(   9)  ---------------------------------------


    POTLOK:  cpu time   47.9665: real time   47.9794
    SETDIJ:  cpu time    0.1572: real time    0.1571
    EDDIAG:  cpu time  176.7301: real time    9.5772
  RMM-DIIS:  cpu time 1098.3883: real time   39.4273
    ORTHCH:  cpu time  140.5919: real time    4.7466
       DOS:  cpu time    3.3222: real time    0.1234
    CHARGE:  cpu time   17.2520: real time   17.2532
    MIXING:  cpu time    0.0707: real time    0.0707
    --------------------------------------------
      LOOP:  cpu time 1484.4875: real time  119.3362

 eigenvalue-minimisations  : 16450
 total energy-change (2. order) : 0.1929755E+02  (-0.1302330E+01)
 number of electron     397.9999891 magnetization 
 augmentation part      112.2819163 magnetization 

 Broyden mixing:
  rms(total) = 0.12465E+01    rms(broyden)= 0.12463E+01
  rms(prec ) = 0.15448E+01
  weight for this iteration     100.00

 eigenvalues of (default mixing * dielectric matrix)
  average eigenvalue GAMMA=   0.9965
  2.6611  0.7074  0.4777  0.1396

 Free energy of the ion-electron system (eV)
  ---------------------------------------------------
  alpha Z        PSCENC =      1291.30091626
  Ewald energy   TEWEN  =    162496.25963858
  -Hartree energ DENC   =   -190868.53305101
  -exchange      EXHF   =         0.00000000
  -V(xc)+E(xc)   XCENC  =       205.36435278
  PAW double counting   =     21328.62737617   -20389.92574584
  entropy T*S    EENTRO =         0.00488809
  eigenvalues    EBANDS =     -1793.67733265
  atomic energy  EATOM  =     27482.25343317
  Solvation  Ediel_sol  =         0.00000000
  ---------------------------------------------------
  free energy    TOTEN  =      -248.32552446 eV

  energy without entropy =     -248.33041254  energy(sigma->0) =     -248.32674648


--------------------------------------------------------------------------------------------------------




----------------------------------------- Iteration    1(  10)  ---------------------------------------


    POTLOK:  cpu time   47.6119: real time   47.6129
    SETDIJ:  cpu time    0.1718: real time    0.1718
    EDDIAG:  cpu time  155.5209: real time    9.6404
  RMM-DIIS:  cpu time 1311.3451: real time   51.0021
    ORTHCH:  cpu time  138.7262: real time    4.7715
       DOS:  cpu time    3.1731: real time    0.1226
    CHARGE:  cpu time   17.1784: real time   17.1797
    MIXING:  cpu time    0.0772: real time    0.0772
    --------------------------------------------
      LOOP:  cpu time 1673.8131: real time  130.5793

 eigenvalue-minimisations  : 18986
 total energy-change (2. order) : 0.1621517E+01  (-0.3563882E+00)
 number of electron     397.9999910 magnetization 
 augmentation part      112.9809855 magnetization 

 Broyden mixing:
  rms(total) = 0.77979E+00    rms(broyden)= 0.77972E+00
  rms(prec ) = 0.11255E+01
  weight for this iteration     100.00

 eigenvalues of (default mixing * dielectric matrix)
  average eigenvalue GAMMA=   1.0491
  2.6197  1.4702  0.5682  0.4461  0.1412

 Free energy of the ion-electron system (eV)
  ---------------------------------------------------
  alpha Z        PSCENC =      1291.30091626
  Ewald energy   TEWEN  =    162496.25963858
  -Hartree energ DENC   =   -190880.32544335
  -exchange      EXHF   =         0.00000000
  -V(xc)+E(xc)   XCENC  =       205.40681243
  PAW double counting   =     21460.56091071   -20516.28086756
  entropy T*S    EENTRO =        -0.02724456
  eigenvalues    EBANDS =     -1785.85216274
  atomic energy  EATOM  =     27482.25343317
  Solvation  Ediel_sol  =         0.00000000
  ---------------------------------------------------
  free energy    TOTEN  =      -246.70400707 eV

  energy without entropy =     -246.67676251  energy(sigma->0) =     -246.69719593


--------------------------------------------------------------------------------------------------------




----------------------------------------- Iteration    1(  11)  ---------------------------------------


    POTLOK:  cpu time   47.4665: real time   47.4664
    SETDIJ:  cpu time    0.1548: real time    0.1548
    EDDIAG:  cpu time  180.8860: real time    9.3482
  RMM-DIIS:  cpu time 1151.3178: real time   43.9694
    ORTHCH:  cpu time  139.2071: real time    5.0338
       DOS:  cpu time    2.8440: real time    0.1170
    CHARGE:  cpu time   17.0379: real time   17.0405
    MIXING:  cpu time    0.0707: real time    0.0708
    --------------------------------------------
      LOOP:  cpu time 1538.9929: real time  123.2021

 eigenvalue-minimisations  : 16897
 total energy-change (2. order) : 0.6157878E+00  (-0.1598438E+00)
 number of electron     397.9999901 magnetization 
 augmentation part      113.3568396 magnetization 

 Broyden mixing:
  rms(total) = 0.45527E+00    rms(broyden)= 0.45518E+00
  rms(prec ) = 0.61785E+00
  weight for this iteration     100.00

 eigenvalues of (default mixing * dielectric matrix)
  average eigenvalue GAMMA=   1.1068
  2.9790  1.8533  0.7683  0.1413  0.4494  0.4494

 Free energy of the ion-electron system (eV)
  ---------------------------------------------------
  alpha Z        PSCENC =      1291.30091626
  Ewald energy   TEWEN  =    162496.25963858
  -Hartree energ DENC   =   -190962.00012633
  -exchange      EXHF   =         0.00000000
  -V(xc)+E(xc)   XCENC  =       205.59408066
  PAW double counting   =     21623.27976844   -20670.66240710
  entropy T*S    EENTRO =        -0.01331105
  eigenvalues    EBANDS =     -1712.10021192
  atomic energy  EATOM  =     27482.25343317
  Solvation  Ediel_sol  =         0.00000000
  ---------------------------------------------------
  free energy    TOTEN  =      -246.08821930 eV

  energy without entropy =     -246.07490825  energy(sigma->0) =     -246.08489154


--------------------------------------------------------------------------------------------------------




----------------------------------------- Iteration    1(  12)  ---------------------------------------


    POTLOK:  cpu time   47.7066: real time   47.7152
    SETDIJ:  cpu time    0.1491: real time    0.1490
    EDDIAG:  cpu time  168.2566: real time    8.9656
  RMM-DIIS:  cpu time 1167.2874: real time   44.2712
    ORTHCH:  cpu time  142.6088: real time    4.8137
       DOS:  cpu time    3.0761: real time    0.1065
    CHARGE:  cpu time   17.3425: real time   16.9615
    MIXING:  cpu time    0.0620: real time    0.0620
    --------------------------------------------
      LOOP:  cpu time 1546.4975: real time  123.0458

 eigenvalue-minimisations  : 17137
 total energy-change (2. order) : 0.2031588E+00  (-0.7153284E-01)
 number of electron     397.9999905 magnetization 
 augmentation part      113.7916476 magnetization 

 Broyden mixing:
  rms(total) = 0.26489E+00    rms(broyden)= 0.26487E+00
  rms(prec ) = 0.30915E+00
  weight for this iteration     100.00

 eigenvalues of (default mixing * dielectric matrix)
  average eigenvalue GAMMA=   1.1697
  3.2786  1.8215  1.3011  0.7494  0.1413  0.4479  0.4479

 Free energy of the ion-electron system (eV)
  ---------------------------------------------------
  alpha Z        PSCENC =      1291.30091626
  Ewald energy   TEWEN  =    162496.25963858
  -Hartree energ DENC   =   -191003.06699732
  -exchange      EXHF   =         0.00000000
  -V(xc)+E(xc)   XCENC  =       205.72413407
  PAW double counting   =     21734.47027319   -20778.38605306
  entropy T*S    EENTRO =        -0.02167511
  eigenvalues    EBANDS =     -1674.41873024
  atomic energy  EATOM  =     27482.25343317
  Solvation  Ediel_sol  =         0.00000000
  ---------------------------------------------------
  free energy    TOTEN  =      -245.88506047 eV

  energy without entropy =     -245.86338536  energy(sigma->0) =     -245.87964169


--------------------------------------------------------------------------------------------------------




----------------------------------------- Iteration    1(  13)  ---------------------------------------


    POTLOK:  cpu time   47.5381: real time   47.5569
    SETDIJ:  cpu time    0.1528: real time    0.1530
    EDDIAG:  cpu time  175.2966: real time    9.3676
  RMM-DIIS:  cpu time 1179.3640: real time   42.8795
    ORTHCH:  cpu time  156.3738: real time    5.5537
       DOS:  cpu time    3.1260: real time    0.1322
    CHARGE:  cpu time   17.2609: real time   17.2629
    MIXING:  cpu time    0.0820: real time    0.0820
    --------------------------------------------
      LOOP:  cpu time 1579.2112: real time  122.9892

 eigenvalue-minimisations  : 18216
 total energy-change (2. order) : 0.1856066E-01  (-0.2197966E-01)
 number of electron     397.9999905 magnetization 
 augmentation part      114.0200386 magnetization 

 Broyden mixing:
  rms(total) = 0.18586E+00    rms(broyden)= 0.18586E+00
  rms(prec ) = 0.20082E+00
  weight for this iteration     100.00

 eigenvalues of (default mixing * dielectric matrix)
  average eigenvalue GAMMA=   1.2244
  2.9846  2.8342  1.5734  0.1413  0.7228  0.6389  0.4499  0.4499

 Free energy of the ion-electron system (eV)
  ---------------------------------------------------
  alpha Z        PSCENC =      1291.30091626
  Ewald energy   TEWEN  =    162496.25963858
  -Hartree energ DENC   =   -191024.15373479
  -exchange      EXHF   =         0.00000000
  -V(xc)+E(xc)   XCENC  =       205.94525176
  PAW double counting   =     21771.43708207   -20813.01328432
  entropy T*S    EENTRO =        -0.02295822
  eigenvalues    EBANDS =     -1655.87284432
  atomic energy  EATOM  =     27482.25343317
  Solvation  Ediel_sol  =         0.00000000
  ---------------------------------------------------
  free energy    TOTEN  =      -245.86649981 eV

  energy without entropy =     -245.84354159  energy(sigma->0) =     -245.86076026


--------------------------------------------------------------------------------------------------------




----------------------------------------- Iteration    1(  14)  ---------------------------------------


    POTLOK:  cpu time   47.5710: real time   47.5723
    SETDIJ:  cpu time    0.1567: real time    0.1567
    EDDIAG:  cpu time  163.2048: real time    9.7517
  RMM-DIIS:  cpu time 1116.0045: real time   43.2975
    ORTHCH:  cpu time  144.5592: real time    5.3302
       DOS:  cpu time    2.8191: real time    0.1092
    CHARGE:  cpu time   16.9452: real time   16.9477
    MIXING:  cpu time    0.0805: real time    0.0804
    --------------------------------------------
      LOOP:  cpu time 1491.3481: real time  123.2468

 eigenvalue-minimisations  : 16934
 total energy-change (2. order) :-0.4881420E-02  (-0.8992732E-02)
 number of electron     397.9999904 magnetization 
 augmentation part      114.0773384 magnetization 

 Broyden mixing:
  rms(total) = 0.12735E+00    rms(broyden)= 0.12735E+00
  rms(prec ) = 0.14308E+00
  weight for this iteration     100.00

 eigenvalues of (default mixing * dielectric matrix)
  average eigenvalue GAMMA=   1.3198
  3.5359  3.5359  1.4733  0.9530  0.8092  0.1413  0.5370  0.4464  0.4464

 Free energy of the ion-electron system (eV)
  ---------------------------------------------------
  alpha Z        PSCENC =      1291.30091626
  Ewald energy   TEWEN  =    162496.25963858
  -Hartree energ DENC   =   -191050.76075682
  -exchange      EXHF   =         0.00000000
  -V(xc)+E(xc)   XCENC  =       206.32444521
  PAW double counting   =     21793.82785178   -20831.69245611
  entropy T*S    EENTRO =        -0.02369649
  eigenvalues    EBANDS =     -1633.36075680
  atomic energy  EATOM  =     27482.25343317
  Solvation  Ediel_sol  =         0.00000000
  ---------------------------------------------------
  free energy    TOTEN  =      -245.87138123 eV

  energy without entropy =     -245.84768474  energy(sigma->0) =     -245.86545711


--------------------------------------------------------------------------------------------------------




----------------------------------------- Iteration    1(  15)  ---------------------------------------


    POTLOK:  cpu time   47.2346: real time   47.2451
    SETDIJ:  cpu time    0.1559: real time    0.1559
    EDDIAG:  cpu time  159.3353: real time    9.6591
  RMM-DIIS:  cpu time 1097.5420: real time   40.0040
    ORTHCH:  cpu time  133.8927: real time    4.7887
       DOS:  cpu time    3.2794: real time    0.1134
    CHARGE:  cpu time   17.0018: real time   16.9755
    MIXING:  cpu time    0.0888: real time    0.0888
    --------------------------------------------
      LOOP:  cpu time 1458.5388: real time  119.0317

 eigenvalue-minimisations  : 16364
 total energy-change (2. order) : 0.1507845E-01  (-0.6352148E-02)
 number of electron     397.9999906 magnetization 
 augmentation part      114.0210850 magnetization 

 Broyden mixing:
  rms(total) = 0.84135E-01    rms(broyden)= 0.84127E-01
  rms(prec ) = 0.10952E+00
  weight for this iteration     100.00

 eigenvalues of (default mixing * dielectric matrix)
  average eigenvalue GAMMA=   1.3582
  3.7456  3.7456  1.4624  1.4624  0.1413  0.9074  0.7200  0.4498  0.4498  0.4980

 Free energy of the ion-electron system (eV)
  ---------------------------------------------------
  alpha Z        PSCENC =      1291.30091626
  Ewald energy   TEWEN  =    162496.25963858
  -Hartree energ DENC   =   -191081.52878757
  -exchange      EXHF   =         0.00000000
  -V(xc)+E(xc)   XCENC  =       206.81911150
  PAW double counting   =     21815.05370336   -20848.69324882
  entropy T*S    EENTRO =        -0.02354804
  eigenvalues    EBANDS =     -1607.29752122
  atomic energy  EATOM  =     27482.25343317
  Solvation  Ediel_sol  =         0.00000000
  ---------------------------------------------------
  free energy    TOTEN  =      -245.85630278 eV

  energy without entropy =     -245.83275475  energy(sigma->0) =     -245.85041578


--------------------------------------------------------------------------------------------------------




----------------------------------------- Iteration    1(  16)  ---------------------------------------


    POTLOK:  cpu time   47.0390: real time   47.0431
    SETDIJ:  cpu time    0.1562: real time    0.1563
    EDDIAG:  cpu time  179.3098: real time    9.3132
  RMM-DIIS:  cpu time 1229.6721: real time   45.8255
    ORTHCH:  cpu time  144.0557: real time    4.9284
       DOS:  cpu time    3.1803: real time    0.1076
    CHARGE:  cpu time   17.2086: real time   16.9381
    MIXING:  cpu time    0.0790: real time    0.0790
    --------------------------------------------
      LOOP:  cpu time 1620.7087: real time  124.3923

 eigenvalue-minimisations  : 18523
 total energy-change (2. order) : 0.4324624E-02  (-0.2880883E-02)
 number of electron     397.9999905 magnetization 
 augmentation part      113.9645221 magnetization 

 Broyden mixing:
[...]
    229       2.6185      0.00000
    230       2.8162      0.00000
    231       2.9308      0.00000
    232       3.0530      0.00000
    233       3.1549      0.00000
    234       3.3050      0.00000
    235       3.4731      0.00000
    236       3.5675      0.00000
    237       3.7742      0.00000
    238       4.0903      0.00000


--------------------------------------------------------------------------------------------------------


 soft charge-density along one line, spin component           1
         0         1         2         3         4         5         6         7         8         9
 total charge-density along one line
 
 pseudopotential strength for first ion, spin component:           1
-10.454   0.001  -0.000  -0.011  -0.000   0.135  -0.000   0.000
  0.001 -10.343   0.000  -0.000  -0.011  -0.000   0.121  -0.000
 -0.000   0.000 -10.333   0.001   0.000   0.000  -0.000   0.120
 -0.011  -0.000   0.001 -10.342   0.001   0.001   0.000  -0.000
 -0.000  -0.011   0.000   0.001 -10.454   0.000   0.001  -0.000
  0.135  -0.000   0.000   0.001   0.000   0.182   0.000  -0.000
 -0.000   0.121  -0.000   0.000   0.001   0.000   0.184   0.000
  0.000  -0.000   0.120  -0.000  -0.000  -0.000   0.000   0.184
  0.001   0.000  -0.000   0.121  -0.000  -0.000  -0.000   0.000
  0.000   0.001  -0.000  -0.000   0.135  -0.000  -0.000   0.000
  0.000  -0.000  -0.034  -0.001  -0.000   0.000   0.000   0.003
  0.000   0.000   0.002   0.000   0.000  -0.000  -0.000  -0.000
 -0.000  -0.002  -0.000   0.000   0.000   0.000   0.001   0.000
  0.000   0.000  -0.005  -0.000   0.000  -0.000  -0.000   0.001
  0.001   0.000   0.000  -0.002  -0.000   0.000  -0.000  -0.000
  0.000   0.004   0.000  -0.000  -0.000  -0.000  -0.001  -0.000
 -0.000  -0.000   0.005   0.000   0.000   0.000   0.000  -0.001
 -0.000  -0.000  -0.000   0.004   0.000   0.000   0.000   0.000
 total augmentation occupancy for first ion, spin component:           1
  1.649   0.002  -0.001  -0.055  -0.000   0.128  -0.001   0.000   0.038   0.000  -0.001  -0.000   0.000   0.001   0.000  -0.000
  0.002   1.832   0.001  -0.001  -0.056  -0.001  -0.021  -0.001   0.000   0.041  -0.001  -0.001  -0.010  -0.000   0.000  -0.000
 -0.001   0.001   1.771   0.001   0.001   0.001  -0.001   0.030  -0.001  -0.001   0.046  -0.007  -0.000   0.033   0.001  -0.000
 -0.055  -0.001   0.001   1.835   0.001   0.041   0.000  -0.001  -0.022  -0.000   0.001  -0.001   0.001  -0.000  -0.011  -0.000
 -0.000  -0.056   0.001   0.001   1.649   0.000   0.038  -0.001  -0.000   0.128   0.001  -0.000   0.001  -0.001   0.000   0.000
  0.128  -0.001   0.001   0.041   0.000   0.208   0.000  -0.000   0.003   0.000   0.001   0.000  -0.000  -0.000   0.012  -0.000
 -0.001  -0.021  -0.001   0.000   0.038   0.000   0.180   0.001   0.000   0.003  -0.000   0.000   0.056   0.000  -0.000  -0.003
  0.000  -0.001   0.030  -0.001  -0.001  -0.000   0.001   0.235   0.000   0.000  -0.169   0.029   0.000   0.085  -0.001  -0.000
  0.038   0.000  -0.001  -0.022  -0.000   0.003   0.000   0.000   0.181   0.000  -0.001   0.000  -0.000  -0.000   0.057   0.000
  0.000   0.041  -0.001  -0.000   0.128   0.000   0.003   0.000   0.000   0.208  -0.001  -0.000   0.011   0.000  -0.000  -0.000
 -0.001  -0.001   0.046   0.001   0.001   0.001  -0.000  -0.169  -0.001  -0.001   1.128  -0.293  -0.000   0.064  -0.000   0.000
 -0.000  -0.001  -0.007  -0.001  -0.000   0.000   0.000   0.029   0.000  -0.000  -0.293   0.124  -0.000  -0.054   0.000  -0.000
  0.000  -0.010  -0.000   0.001   0.001  -0.000   0.056   0.000  -0.000   0.011  -0.000  -0.000   0.173   0.000  -0.000  -0.007
  0.001  -0.000   0.033  -0.000  -0.001  -0.000   0.000   0.085  -0.000   0.000   0.064  -0.054   0.000   0.096  -0.000  -0.000
  0.000   0.000   0.001  -0.011   0.000   0.012  -0.000  -0.001   0.057  -0.000  -0.000   0.000  -0.000  -0.000   0.174   0.000
 -0.000  -0.000  -0.000  -0.000   0.000  -0.000  -0.003  -0.000   0.000  -0.000   0.000  -0.000  -0.007  -0.000   0.000   0.000
 -0.000   0.000  -0.007  -0.000   0.000   0.000  -0.000  -0.003   0.000   0.000  -0.005   0.003  -0.000  -0.004   0.000   0.000
  0.000  -0.000  -0.000  -0.000  -0.000  -0.000  -0.000   0.000  -0.003   0.000  -0.000  -0.000   0.000   0.000  -0.007  -0.000


------------------------ aborting loop because EDIFF is reached ----------------------------------------


    CHARGE:  cpu time   17.0247: real time   17.0337
    FORLOC:  cpu time    0.8213: real time    0.8221
    FORNL :  cpu time   13.2581: real time   13.2746
    FORCOR:  cpu time   47.1221: real time   47.1471
    FORHAR:  cpu time    1.0701: real time    1.0702
    MIXING:  cpu time    3.8918: real time    0.5609
    OFIELD:  cpu time    0.0001: real time    0.0001

 VOLUME and BASIS-vectors are now :
 -----------------------------------------------------------------------------
  energy-cutoff  :      396.00
  volume of cell :     1665.84
      direct lattice vectors                 reciprocal lattice vectors
     8.455582619  0.000000000  0.000000000     0.118265062 -0.068280376  0.000000000
     4.227791797  7.322749070  0.000000000     0.000000000  0.136560736  0.000000000
     0.000000000  0.000000000 26.903955460     0.000000000  0.000000000  0.037169256

  length of vectors
     8.455582619  8.455582619 26.903955460     0.136560736  0.136560736  0.037169256


 FORCES acting on ions
    electron-ion (+dipol)            ewald-force                    non-local-force                 convergence-correction
 -----------------------------------------------------------------------------------------------
   -.803E+00 0.366E-01 0.274E+04   0.805E+00 -.755E-01 -.274E+04   0.310E-02 0.131E-01 0.126E+00   0.606E-04 -.123E-04 -.180E-03
   -.224E+00 -.632E-01 0.274E+04   0.231E+00 0.716E-01 -.274E+04   -.119E-02 0.215E-01 0.111E+00   -.804E-04 0.168E-03 -.128E-04
   0.103E+01 0.197E+00 0.274E+04   -.104E+01 -.232E+00 -.274E+04   0.275E-03 0.126E-01 0.115E+00   0.224E-04 0.677E-04 -.224E-03
   -.612E+00 -.123E+00 0.274E+04   0.670E+00 0.875E-01 -.274E+04   0.199E-02 0.428E-01 0.180E+00   0.215E-03 -.345E-04 -.325E-03
   0.657E+00 0.169E+00 0.274E+04   -.692E+00 -.184E+00 -.274E+04   -.138E-01 0.300E-01 0.179E+00   -.204E-03 0.701E-04 -.327E-03
   -.331E-01 -.685E+00 0.274E+04   0.234E-01 0.723E+00 -.274E+04   0.252E-02 -.279E-01 0.830E-01   -.155E-04 -.116E-03 -.296E-03
   0.254E+00 0.705E+00 0.274E+04   -.243E+00 -.721E+00 -.274E+04   -.404E-02 -.285E-01 0.293E+00   0.110E-03 -.184E-03 -.345E-03
   -.471E+00 -.118E+00 0.274E+04   0.468E+00 0.106E+00 -.274E+04   -.345E-01 -.660E-02 0.124E+00   -.196E-03 0.356E-04 -.109E-03
   0.222E+00 -.233E+00 0.274E+04   -.227E+00 0.228E+00 -.274E+04   0.384E-01 -.103E-01 0.107E+00   0.838E-04 -.749E-05 -.149E-03
   -.708E+01 -.393E+00 0.111E+04   0.720E+01 0.470E+00 -.111E+04   -.159E-01 -.701E-01 0.237E-01   -.125E-04 -.675E-03 -.116E-02
   0.637E+01 0.217E+01 0.111E+04   -.648E+01 -.211E+01 -.111E+04   0.650E-02 -.784E-01 0.550E-01   -.974E-04 -.546E-03 -.118E-02
   0.640E+00 -.149E+01 0.112E+04   -.650E+00 0.149E+01 -.112E+04   0.994E-02 0.250E-01 -.111E+00   0.150E-03 0.720E-04 -.672E-03
   0.179E+01 0.481E+01 0.110E+04   -.180E+01 -.489E+01 -.110E+04   -.178E-01 0.201E-01 0.124E-01   0.103E-03 -.138E-04 -.288E-02
   -.201E+01 -.360E+01 0.111E+04   0.194E+01 0.363E+01 -.111E+04   0.830E-01 0.430E-01 -.249E-01   0.151E-03 0.239E-03 -.107E-02
   0.639E+00 -.514E+01 0.111E+04   -.548E+00 0.519E+01 -.111E+04   -.802E-01 0.354E-01 -.284E-01   -.278E-03 0.685E-04 -.998E-03
   -.479E+01 0.141E+01 0.111E+04   0.478E+01 -.149E+01 -.111E+04   0.229E-01 0.499E-01 -.395E-01   0.565E-03 0.265E-03 -.123E-02
   -.228E+01 -.707E+00 0.111E+04   0.231E+01 0.691E+00 -.111E+04   -.326E-02 0.264E-01 0.130E+00   -.155E-03 0.364E-03 0.508E-03
   0.700E+01 0.144E+01 0.111E+04   -.703E+01 -.152E+01 -.111E+04   -.274E-01 0.449E-01 -.918E-02   -.403E-03 0.253E-03 -.123E-02
   0.354E+00 -.616E+01 -.556E+03   -.346E+00 0.583E+01 0.557E+03   -.152E-01 0.345E+00 -.932E-01   -.223E-03 -.740E-02 -.323E-02
   0.581E+01 -.812E+00 -.502E+03   -.593E+01 0.885E+00 0.502E+03   0.123E+00 -.713E-01 0.232E+00   0.128E-02 -.188E-03 -.908E-02
   -.565E+01 -.190E+01 -.499E+03   0.577E+01 0.200E+01 0.499E+03   -.131E+00 -.104E+00 0.223E+00   -.233E-02 -.319E-03 -.103E-01
   0.777E+01 0.795E+01 -.508E+03   -.749E+01 -.785E+01 0.507E+03   -.277E+00 -.103E+00 0.176E+00   0.649E-02 0.175E-02 -.663E-02
   -.254E+01 0.409E+01 -.536E+03   0.251E+01 -.371E+01 0.536E+03   0.185E-01 -.399E+00 -.258E+00   0.335E-03 0.701E-02 -.302E-02
   -.584E+01 0.773E+01 -.519E+03   0.551E+01 -.757E+01 0.519E+03   0.324E+00 -.165E+00 0.126E+00   -.735E-02 0.251E-02 -.559E-02
   -.512E-01 -.680E+01 -.525E+03   0.355E+00 0.670E+01 0.526E+03   -.340E+00 0.978E-01 -.122E+00   0.621E-02 -.238E-02 -.740E-02
   -.771E+00 -.487E+01 -.544E+03   0.470E+00 0.475E+01 0.544E+03   0.326E+00 0.133E+00 -.226E+00   -.700E-02 -.263E-02 -.618E-02
   0.756E+00 0.124E+01 -.488E+03   -.773E+00 -.137E+01 0.487E+03   0.870E-02 0.114E+00 0.190E+00   -.140E-03 0.754E-03 -.890E-02
   -.183E+02 0.253E+02 -.218E+04   0.184E+02 -.252E+02 0.219E+04   -.972E-01 -.993E-01 -.353E+00   -.771E-03 0.636E-03 0.760E-03
   0.163E+02 0.180E+02 -.219E+04   -.164E+02 -.180E+02 0.219E+04   0.775E-01 0.497E-02 -.332E+00   -.130E-02 -.132E-03 0.737E-03
   0.329E+01 0.698E+02 -.214E+04   -.332E+01 -.699E+02 0.214E+04   0.233E-01 0.938E-01 -.146E+00   0.830E-03 -.518E-02 0.373E-02
   0.663E+02 0.636E+02 -.201E+04   -.670E+02 -.642E+02 0.202E+04   0.646E+00 0.673E+00 -.177E+01   -.926E-03 -.145E-03 -.123E-02
   -.682E+02 0.622E+02 -.205E+04   0.689E+02 -.630E+02 0.205E+04   -.680E+00 0.784E+00 -.181E+01   -.725E-03 -.172E-02 -.218E-02
   -.940E+01 0.127E+02 -.211E+04   0.932E+01 -.130E+02 0.211E+04   0.715E-01 0.248E+00 0.167E+00   -.395E-03 -.210E-02 0.854E-03
   0.408E+02 -.438E+02 -.212E+04   -.414E+02 0.444E+02 0.212E+04   0.615E+00 -.544E+00 0.185E+00   -.336E-02 0.510E-02 0.165E-02
   -.235E+01 -.158E+03 -.209E+04   0.250E+01 0.160E+03 0.209E+04   -.170E+00 -.131E+01 0.617E+00   -.942E-03 -.154E-02 -.611E-02
   -.426E+02 -.501E+02 -.213E+04   0.430E+02 0.505E+02 0.213E+04   -.404E+00 -.390E+00 0.779E-01   0.224E-02 0.400E-02 0.187E-02
   -.273E+02 0.122E+03 -.115E+04   0.272E+02 -.123E+03 0.115E+04   0.971E-01 0.751E+00 0.393E+00   -.636E-03 -.397E-04 0.176E-03
   -.663E+02 0.219E+02 -.110E+04   0.672E+02 -.236E+02 0.110E+04   -.750E+00 0.168E+01 -.211E+00   -.570E-03 -.519E-03 0.232E-03
   0.820E+02 0.970E+02 -.116E+04   -.820E+02 -.980E+02 0.116E+04   0.172E-01 0.103E+01 0.164E+00   -.285E-03 -.267E-03 0.147E-03
   -.639E+02 -.128E+03 -.115E+04   0.658E+02 0.127E+03 0.116E+04   -.189E+01 0.745E+00 -.386E+01   0.136E-03 -.376E-03 0.462E-03
   0.128E+03 0.269E+01 -.111E+04   -.129E+03 -.422E+01 0.111E+04   0.131E+01 0.151E+01 -.488E+00   -.380E-03 -.652E-03 0.541E-03
   0.895E+02 -.128E+03 -.116E+04   -.919E+02 0.128E+03 0.116E+04   0.241E+01 0.494E+00 -.361E+01   -.868E-03 -.206E-03 0.449E-03
   -.176E+02 0.681E+02 -.266E+03   0.191E+02 -.730E+02 0.264E+03   -.147E+01 0.488E+01 0.231E+01   -.880E-04 -.732E-04 -.809E-05
   -.189E+02 0.216E+02 -.318E+03   0.206E+02 -.220E+02 0.323E+03   -.173E+01 0.327E+00 -.517E+01   -.826E-04 0.240E-04 0.440E-04
   0.342E+02 0.610E+02 -.272E+03   -.368E+02 -.658E+02 0.271E+03   0.253E+01 0.481E+01 0.154E+01   0.211E-04 0.913E-04 0.719E-04
   0.292E+02 0.157E+01 -.316E+03   -.309E+02 -.583E+00 0.321E+03   0.167E+01 -.962E+00 -.508E+01   -.262E-04 -.460E-04 -.702E-04
   -.320E+02 -.618E+02 -.304E+03   0.350E+02 0.664E+02 0.306E+03   -.304E+01 -.460E+01 -.205E+01   0.939E-04 0.120E-03 0.191E-03
   0.629E+02 -.109E+02 -.294E+03   -.686E+02 0.118E+02 0.295E+03   0.561E+01 -.917E+00 -.947E+00   0.492E-04 -.571E-04 0.121E-03
   0.335E+02 -.589E+02 -.304E+03   -.362E+02 0.637E+02 0.306E+03   0.272E+01 -.484E+01 -.190E+01   -.200E-03 0.116E-03 0.150E-03
   -.123E+03 -.454E+01 -.114E+04   0.123E+03 0.458E+01 0.114E+04   -.551E+00 -.168E-01 0.468E+00   0.203E-03 -.378E-03 0.795E-03
   -.427E+02 -.415E+02 -.268E+03   0.459E+02 0.455E+02 0.266E+03   -.311E+01 -.404E+01 0.231E+01   0.170E-03 0.981E-04 0.601E-04
   -.402E+02 0.488E+02 -.278E+03   0.430E+02 -.536E+02 0.278E+03   -.279E+01 0.484E+01 0.564E+00   0.143E-03 -.197E-03 0.114E-03
   -.147E+02 -.134E+02 -.314E+03   0.143E+02 0.144E+02 0.319E+03   0.441E+00 -.106E+01 -.528E+01   0.162E-04 -.107E-04 0.268E-03
 -----------------------------------------------------------------------------------------------
   -.153E+01 -.406E+01 0.228E+02   0.144E-12 0.977E-13 0.682E-12   0.156E+01 0.408E+01 -.226E+02   -.103E-01 -.435E-02 -.684E-01
 
 
 POSITION                                       TOTAL-FORCE (eV/Angst)
 -----------------------------------------------------------------------------------
      0.00000      0.00000     10.00000         0.005336     -0.026146     -0.189745
      2.81853      0.00000     10.00000         0.004774      0.029744     -0.182029
      5.63706      0.00000     10.00000        -0.007094     -0.022910     -0.185823
      9.86484      2.44092     10.00000         0.060450      0.006904     -0.255722
      4.22779      2.44092     10.00000        -0.048922      0.014215     -0.278812
      7.04632      2.44092     10.00000        -0.007380      0.009465     -0.158467
      2.81853      4.88183     10.00000         0.007182     -0.044615     -0.328907
      5.63706      4.88183     10.00000        -0.038141     -0.018490     -0.182935
      8.45558      4.88183     10.00000         0.032712     -0.015646     -0.163387
      1.40926      0.81364     12.30132         0.105978      0.005982      0.195880
      4.22779      0.81364     12.30132        -0.102313     -0.019737      0.230819
      7.04632      0.81364     12.30132         0.000449      0.021431     -0.008510
      2.81853      3.25455     12.30132        -0.033775     -0.060329      0.108972
      5.63705      3.25455     12.30132         0.007994      0.068659      0.171184
      8.45558      3.25455     12.30132         0.009976      0.088622      0.205408
      4.22779      5.69547     12.30132         0.015343     -0.033378      0.118747
      7.04632      5.69547     12.30132         0.032608      0.010513      0.580572
      9.86485      5.69547     12.30132        -0.055489     -0.036074      0.197687
      2.81931      1.60292     14.65183        -0.008214      0.001881      0.010173
      5.63290      1.64457     14.57336         0.003355      0.000882     -0.006996
      8.45988      1.65251     14.56993        -0.015038      0.002366     -0.024049
      4.23913      4.07275     14.59265         0.006160     -0.006604     -0.011799
      7.04449      4.10808     14.65316        -0.007955     -0.011329      0.051440
      9.83603      4.08495     14.61129        -0.013196     -0.002619     -0.005636
      5.65664      6.52303     14.62829        -0.030207      0.004438     -0.005669
      8.43434      6.51666     14.65738         0.017859      0.010381      0.002270
     11.27005      6.51704     14.56040        -0.007916     -0.017584      0.006260
      9.86767      2.45847     16.93445        -0.014515      0.001645     -0.024453
      4.22439      2.45352     16.93559        -0.014772     -0.002235     -0.022450
      7.04456      2.46717     16.88747        -0.005900     -0.032422      0.015996
      5.58416      4.89780     17.02663        -0.022251      0.007507      0.012416
      8.48749      4.88380     17.12831        -0.013193      0.010376      0.029425
     11.26417      4.88417     16.86641        -0.010434     -0.011150     -0.039325
      8.42055      0.05371     16.84978        -0.014419      0.030704     -0.024156
      7.05231      7.28408     17.17325        -0.018915     -0.037716     -0.014632
      5.66172      0.04369     16.87585        -0.005603      0.019629     -0.014608
      7.54111      4.11922     19.92344         0.003985     -0.035567      0.063178
      8.35321      5.25438     19.24855         0.071100     -0.062276     -0.018869
      6.00348      4.27194     19.93975         0.020702      0.016053      0.016917
      7.67333      6.58291     19.24394        -0.020883      0.038781      0.052404
      5.46606      5.40956     19.07544         0.011573     -0.013531      0.014541
      6.25373      6.66919     19.17466        -0.018798      0.018153      0.021660
      7.82980      3.15637     19.46761         0.004508      0.041450      0.004722
      7.89233      4.06853     20.97192         0.007208     -0.010979     -0.017461
      5.51139      3.33188     19.64487         0.009945     -0.004329      0.032364
      5.67173      4.48183     20.97567         0.020519      0.020558      0.032306
      4.00952      0.11193     19.63343         0.028600      0.040926     -0.017048
      4.40208      5.59135     19.27113        -0.009088     -0.024844      0.001931
      1.52313      0.24724     19.53863         0.008985      0.014660     -0.003408
      9.75026      5.33013     19.86996         0.023487      0.025677     -0.001973
     10.35555      6.13092     19.41658         0.001054     -0.013719      0.001377
     10.28985      4.37629     19.76545        -0.009688      0.003111     -0.007292
      9.64357      5.54667     20.95094         0.032260     -0.000485      0.015515
 -----------------------------------------------------------------------------------
    total drift:                                0.013132      0.018796      0.097620


--------------------------------------------------------------------------------------------------------



  FREE ENERGIE OF THE ION-ELECTRON SYSTEM (eV)
  ---------------------------------------------------
  free  energy   TOTEN  =      -245.86871834 eV

  energy  without entropy=     -245.84430999  energy(sigma->0) =     -245.86261625
 
 d Force = 0.1744116E-02[ 0.104E-02, 0.245E-02]  d Energy = 0.1725190E-02 0.189E-04
 d Force = 0.4479034E+01[ 0.448E+01, 0.448E+01]  d Ewald  = 0.4479034E+01-0.317E-06


--------------------------------------------------------------------------------------------------------


    POTLOK:  cpu time   47.4436: real time   47.5768


--------------------------------------------------------------------------------------------------------


 Conjugate gradient step on ions:
 trial-energy change:   -0.001725  1 .order   -0.001744   -0.002446   -0.001043
  (g-gl).g = 0.166E-02      g.g   = 0.167E-02  gl.gl    = 0.215E-02
 g(Force)  = 0.167E-02   g(Stress)= 0.000E+00 ortho     = 0.167E-04
 gamma     =   0.76920
 trial     =   1.45075
 opt step  =   2.72196  (harmonic =   2.52891) maximal distance =0.00405712
 next E    =  -245.869162   (d E  =  -0.00217)


--------------------------------------------------------------------------------------------------------


  
 reached required accuracy - stopping structural energy minimisation
 writing wavefunctions
     LOOP+:  cpu time21640.8565: real time 1945.9077
    4ORBIT:  cpu time    0.0000: real time    0.0000

 total amount of memory used by VASP MPI-rank0  4246798. kBytes
=======================================================================

   base      :      30000. kBytes
   nonlr-proj:      15127. kBytes
   fftplans  :      67680. kBytes
   grid      :     168864. kBytes
   one-center:        824. kBytes
   wavefun   :    3964303. kBytes
 
  
  
 General timing and accounting informations for this job:
 ========================================================
  
                  Total CPU time used (sec):   110158.938
                            User time (sec):    99792.951
                          System time (sec):    10365.984
                         Elapsed time (sec):     9512.379
  
                   Maximum memory used (kb):     6030612.
                   Average memory used (kb):           0.
  
                          Minor page faults:    134511485
                          Major page faults:            0
                 Voluntary context switches:       177685
