       N       E                     dE             d eps       ncg     rms          rms(c)
DAV:   1     0.352826530387E+04    0.35283E+04   -0.14312E+05  4816   0.117E+03
DAV:   2     0.187878630962E+03   -0.33404E+04   -0.30654E+04  5024   0.446E+02
DAV:   3    -0.241084389273E+03   -0.42896E+03   -0.39862E+03  6544   0.130E+02
DAV:   4    -0.274195057548E+03   -0.33111E+02   -0.29976E+02  6952   0.371E+01
DAV:   5    -0.275246175868E+03   -0.10511E+01   -0.10323E+01  6592   0.582E+00    0.281E+01
RMM:   6    -0.266040670022E+03    0.92055E+01   -0.15458E+01  5382   0.725E+00    0.225E+01
RMM:   7    -0.278250790614E+03   -0.12210E+02   -0.19976E+01  5317   0.785E+00    0.291E+01
RMM:   8    -0.268654216066E+03    0.95966E+01   -0.14160E+01  5306   0.668E+00    0.246E+01
RMM:   9    -0.252335089004E+03    0.16319E+02   -0.14508E+01  4867   0.960E+00    0.124E+01
RMM:  10    -0.250734385023E+03    0.16007E+01   -0.31794E+00  5697   0.326E+00    0.786E+00
RMM:  11    -0.250150203873E+03    0.58418E+00   -0.19785E+00  4996   0.306E+00    0.411E+00
RMM:  12    -0.250012891709E+03    0.13731E+00   -0.74725E-01  4997   0.198E+00    0.305E+00
RMM:  13    -0.249934074677E+03    0.78817E-01   -0.20142E-01  5155   0.960E-01    0.194E+00
RMM:  14    -0.249941518985E+03   -0.74443E-02   -0.11369E-01  4842   0.716E-01    0.126E+00
RMM:  15    -0.249925455432E+03    0.16064E-01   -0.76199E-02  4884   0.606E-01    0.770E-01
RMM:  16    -0.249922563303E+03    0.28921E-02   -0.23396E-02  5467   0.309E-01    0.566E-01
RMM:  17    -0.249928664126E+03   -0.61008E-02   -0.13417E-02  4974   0.212E-01    0.461E-01
RMM:  18    -0.249928532307E+03    0.13182E-03   -0.94981E-03  4834   0.183E-01    0.277E-01
RMM:  19    -0.249927580861E+03    0.95145E-03   -0.37416E-03  4810   0.144E-01    0.162E-01
RMM:  20    -0.249926754401E+03    0.82646E-03   -0.23593E-03  4842   0.102E-01    0.128E-01
RMM:  21    -0.249926264642E+03    0.48976E-03   -0.10046E-03  4517   0.707E-02    0.792E-02
RMM:  22    -0.249925875874E+03    0.38877E-03   -0.50899E-04  3519   0.477E-02    0.400E-02
RMM:  23    -0.249925692884E+03    0.18299E-03   -0.36830E-04  3180   0.407E-02    0.279E-02
RMM:  24    -0.249925667387E+03    0.25497E-04   -0.29771E-04  3061   0.382E-02
   1 F= -.24992567E+03 E0= -.24992951E+03  d E =0.153557E-01
       N       E                     dE             d eps       ncg     rms          rms(c)
DAV:   1    -0.249920034087E+03    0.56588E-02   -0.54861E-01  5016   0.138E+00    0.123E-01
RMM:   2    -0.249920778787E+03   -0.74470E-03   -0.80806E-03  4433   0.155E-01    0.116E-01
RMM:   3    -0.249920703701E+03    0.75086E-04   -0.37975E-04  3034   0.487E-02
   2 F= -.24992070E+03 E0= -.24992459E+03  d E =0.155622E-01
       N       E                     dE             d eps       ncg     rms          rms(c)
DAV:   1    -0.249918876081E+03    0.19027E-02   -0.22315E+00  4944   0.278E+00    0.242E-01
RMM:   2    -0.249920727567E+03   -0.18515E-02   -0.32308E-02  4738   0.315E-01    0.467E-02
RMM:   3    -0.249920822650E+03   -0.95083E-04   -0.14684E-03  3856   0.961E-02    0.273E-02
RMM:   4    -0.249920869150E+03   -0.46500E-04   -0.36795E-04  3102   0.377E-02
   3 F= -.24992087E+03 E0= -.24992476E+03  d E =0.155771E-01
       N       E                     dE             d eps       ncg     rms          rms(c)
DAV:   1    -0.249920197973E+03    0.62468E-03   -0.10956E+00  4928   0.195E+00    0.174E-01
RMM:   2    -0.249921388395E+03   -0.11904E-02   -0.15388E-02  4585   0.212E-01    0.115E-01
RMM:   3    -0.249921260047E+03    0.12835E-03   -0.67910E-04  3287   0.622E-02    0.890E-02
RMM:   4    -0.249921063276E+03    0.19677E-03   -0.10789E-03  3620   0.488E-02    0.232E-02
RMM:   5    -0.249921112360E+03   -0.49084E-04   -0.71071E-05  2635   0.269E-02
   4 F= -.24992111E+03 E0= -.24992500E+03  d E =0.155352E-01
       N       E                     dE             d eps       ncg     rms          rms(c)
DAV:   1    -0.249919053629E+03    0.20096E-02   -0.21767E+00  4888   0.272E+00    0.240E-01
RMM:   2    -0.249920898718E+03   -0.18451E-02   -0.32800E-02  4711   0.303E-01    0.320E-02
RMM:   3    -0.249921009025E+03   -0.11031E-03   -0.15965E-03  3743   0.948E-02    0.214E-02
RMM:   4    -0.249921040607E+03   -0.31583E-04   -0.28959E-04  2912   0.320E-02
   5 F= -.24992104E+03 E0= -.24992493E+03  d E =0.155508E-01
       N       E                     dE             d eps       ncg     rms          rms(c)
DAV:   1    -0.249919107288E+03    0.19017E-02   -0.11008E+00  4840   0.198E+00    0.181E-01
RMM:   2    -0.249920104460E+03   -0.99717E-03   -0.14829E-02  4589   0.211E-01    0.124E-01
RMM:   3    -0.249919933467E+03    0.17099E-03   -0.72377E-04  3288   0.635E-02    0.746E-02
RMM:   4    -0.249919851213E+03    0.82253E-04   -0.62245E-04  3359   0.405E-02
   6 F= -.24991985E+03 E0= -.24992373E+03  d E =0.155338E-01
       N       E                     dE             d eps       ncg     rms          rms(c)
DAV:   1    -0.249918976105E+03    0.95736E-03   -0.22353E+00  4808   0.278E+00    0.261E-01
RMM:   2    -0.249920057203E+03   -0.10811E-02   -0.25615E-02  4693   0.284E-01    0.339E-02
RMM:   3    -0.249920121916E+03   -0.64713E-04   -0.10667E-03  3537   0.798E-02    0.252E-02
RMM:   4    -0.249920126038E+03   -0.41216E-05   -0.22580E-04  2838   0.310E-02
   7 F= -.24992013E+03 E0= -.24992400E+03  d E =0.155115E-01
       N       E                     dE             d eps       ncg     rms          rms(c)
DAV:   1    -0.249919557055E+03    0.56486E-03   -0.11013E+00  4816   0.202E+00    0.174E-01
RMM:   2    -0.249920900535E+03   -0.13435E-02   -0.18018E-02  4671   0.232E-01    0.123E-01
RMM:   3    -0.249920880956E+03    0.19579E-04   -0.74298E-04  3250   0.661E-02
   8 F= -.24992088E+03 E0= -.24992477E+03  d E =0.155377E-01
       N       E                     dE             d eps       ncg     rms          rms(c)
DAV:   1    -0.249918280484E+03    0.26201E-02   -0.22446E+00  4800   0.279E+00    0.256E-01
RMM:   2    -0.249920070756E+03   -0.17903E-02   -0.34131E-02  4744   0.315E-01    0.510E-02
RMM:   3    -0.249920264513E+03   -0.19376E-03   -0.17388E-03  3975   0.102E-01    0.297E-02
RMM:   4    -0.249920278186E+03   -0.13673E-04   -0.36082E-04  3062   0.349E-02
   9 F= -.24992028E+03 E0= -.24992416E+03  d E =0.155208E-01
       N       E                     dE             d eps       ncg     rms          rms(c)
DAV:   1    -0.249920229696E+03    0.34818E-04   -0.10852E+00  4824   0.197E+00    0.175E-01
RMM:   2    -0.249921318748E+03   -0.10891E-02   -0.17284E-02  4681   0.227E-01    0.110E-01
RMM:   3    -0.249921313553E+03    0.51946E-05   -0.91862E-04  3475   0.745E-02
  10 F= -.24992131E+03 E0= -.24992520E+03  d E =0.155349E-01
       N       E                     dE             d eps       ncg     rms          rms(c)
DAV:   1    -0.249918603632E+03    0.27151E-02   -0.22270E+00  4800   0.278E+00    0.238E-01
RMM:   2    -0.249920585907E+03   -0.19823E-02   -0.34768E-02  4756   0.321E-01    0.491E-02
RMM:   3    -0.249920687194E+03   -0.10129E-03   -0.16865E-03  3882   0.978E-02    0.352E-02
RMM:   4    -0.249920702937E+03   -0.15742E-04   -0.30389E-04  2979   0.342E-02
  11 F= -.24992070E+03 E0= -.24992459E+03  d E =0.155654E-01
       N       E                     dE             d eps       ncg     rms          rms(c)
DAV:   1    -0.249920185343E+03    0.50185E-03   -0.10902E+00  4800   0.195E+00    0.180E-01
RMM:   2    -0.249921404097E+03   -0.12188E-02   -0.15921E-02  4663   0.213E-01    0.122E-01
RMM:   3    -0.249921252075E+03    0.15202E-03   -0.86616E-04  3444   0.682E-02    0.798E-02
RMM:   4    -0.249921116691E+03    0.13538E-03   -0.74189E-04  3516   0.464E-02    0.243E-02
RMM:   5    -0.249921109560E+03    0.71311E-05   -0.85518E-05  2624   0.273E-02
  12 F= -.24992111E+03 E0= -.24992498E+03  d E =0.154937E-01
       N       E                     dE             d eps       ncg     rms          rms(c)
DAV:   1    -0.249919574497E+03    0.15422E-02   -0.21625E+00  4800   0.278E+00    0.260E-01
RMM:   2    -0.249920923430E+03   -0.13489E-02   -0.29735E-02  4739   0.301E-01    0.342E-02
RMM:   3    -0.249921013467E+03   -0.90037E-04   -0.14197E-03  3848   0.981E-02    0.211E-02
RMM:   4    -0.249921031381E+03   -0.17914E-04   -0.28548E-04  2989   0.332E-02
  13 F= -.24992103E+03 E0= -.24992492E+03  d E =0.155712E-01
       N       E                     dE             d eps       ncg     rms          rms(c)
DAV:   1    -0.249920640476E+03    0.37299E-03   -0.11635E+00  4800   0.208E+00    0.183E-01
RMM:   2    -0.249922077087E+03   -0.14366E-02   -0.21685E-02  4775   0.263E-01    0.112E-01
RMM:   3    -0.249922084996E+03   -0.79082E-05   -0.12335E-03  3710   0.924E-02    0.920E-02
RMM:   4    -0.249921970155E+03    0.11484E-03   -0.12771E-03  3957   0.564E-02    0.320E-02
RMM:   5    -0.249921959773E+03    0.10381E-04   -0.10082E-04  2664   0.307E-02
  14 F= -.24992196E+03 E0= -.24992583E+03  d E =0.154632E-01
       N       E                     dE             d eps       ncg     rms          rms(c)
DAV:   1    -0.249919792229E+03    0.21779E-02   -0.21364E+00  4800   0.284E+00    0.244E-01
RMM:   2    -0.249921616779E+03   -0.18245E-02   -0.34468E-02  4794   0.352E-01    0.307E-02
RMM:   3    -0.249921840542E+03   -0.22376E-03   -0.22097E-03  4256   0.128E-01    0.186E-02
RMM:   4    -0.249921869141E+03   -0.28599E-04   -0.44462E-04  3209   0.364E-02
  15 F= -.24992187E+03 E0= -.24992577E+03  d E =0.155939E-01
       N       E                     dE             d eps       ncg     rms          rms(c)
DAV:   1    -0.249919012729E+03    0.28278E-02   -0.10823E+00  4800   0.204E+00    0.176E-01
RMM:   2    -0.249920217671E+03   -0.12049E-02   -0.15895E-02  4748   0.239E-01    0.120E-01
RMM:   3    -0.249920152175E+03    0.65496E-04   -0.97351E-04  3618   0.828E-02
  16 F= -.24992015E+03 E0= -.24992403E+03  d E =0.155101E-01
       N       E                     dE             d eps       ncg     rms          rms(c)
DAV:   1    -0.249918260181E+03    0.19575E-02   -0.22117E+00  4800   0.282E+00    0.241E-01
RMM:   2    -0.249920269167E+03   -0.20090E-02   -0.31210E-02  4789   0.333E-01    0.417E-02
RMM:   3    -0.249920432520E+03   -0.16335E-03   -0.16191E-03  4082   0.102E-01    0.282E-02
RMM:   4    -0.249920461342E+03   -0.28822E-04   -0.36383E-04  3041   0.368E-02
  17 F= -.24992046E+03 E0= -.24992434E+03  d E =0.155189E-01
       N       E                     dE             d eps       ncg     rms          rms(c)
DAV:   1    -0.249923187002E+03   -0.27545E-02   -0.10462E+00  4800   0.203E+00    0.187E-01
RMM:   2    -0.249924192508E+03   -0.10055E-02   -0.15491E-02  4764   0.256E-01    0.115E-01
RMM:   3    -0.249924157432E+03    0.35076E-04   -0.13075E-03  4109   0.818E-02    0.804E-02
RMM:   4    -0.249923967111E+03    0.19032E-03   -0.53769E-04  3213   0.437E-02    0.379E-02
RMM:   5    -0.249923922333E+03    0.44778E-04   -0.13592E-04  2761   0.285E-02
  18 F= -.24992392E+03 E0= -.24992781E+03  d E =0.155342E-01
       N       E                     dE             d eps       ncg     rms          rms(c)
DAV:   1    -0.249920903537E+03    0.30636E-02   -0.20039E+00  4800   0.283E+00    0.266E-01
RMM:   2    -0.249922459036E+03   -0.15555E-02   -0.30680E-02  4801   0.387E-01    0.362E-02
RMM:   3    -0.249922661268E+03   -0.20223E-03   -0.23565E-03  4813   0.112E-01    0.232E-02
RMM:   4    -0.249922680148E+03   -0.18880E-04   -0.25791E-04  2944   0.313E-02
  19 F= -.24992268E+03 E0= -.24992656E+03  d E =0.155037E-01
       N       E                     dE             d eps       ncg     rms          rms(c)
DAV:   1    -0.249920011152E+03    0.26501E-02   -0.10438E+00  4800   0.205E+00    0.182E-01
RMM:   2    -0.249921189420E+03   -0.11783E-02   -0.19100E-02  4783   0.277E-01    0.115E-01
RMM:   3    -0.249921177065E+03    0.12355E-04   -0.12675E-03  3934   0.836E-02    0.904E-02
RMM:   4    -0.249921178494E+03   -0.14290E-05   -0.10162E-03  4014   0.589E-02    0.334E-02
RMM:   5    -0.249921155636E+03    0.22858E-04   -0.89395E-05  2658   0.259E-02
  20 F= -.24992116E+03 E0= -.24992504E+03  d E =0.155310E-01
       N       E                     dE             d eps       ncg     rms          rms(c)
DAV:   1    -0.249919284224E+03    0.18943E-02   -0.21646E+00  4800   0.279E+00    0.265E-01
RMM:   2    -0.249920810420E+03   -0.15262E-02   -0.35932E-02  4791   0.352E-01    0.339E-02
RMM:   3    -0.249921070251E+03   -0.25983E-03   -0.22612E-03  4270   0.123E-01    0.213E-02
RMM:   4    -0.249921119003E+03   -0.48752E-04   -0.44210E-04  3183   0.360E-02
  21 F= -.24992112E+03 E0= -.24992499E+03  d E =0.154984E-01
       N       E                     dE             d eps       ncg     rms          rms(c)
DAV:   1    -0.249920289181E+03    0.78107E-03   -0.10792E+00  4800   0.195E+00    0.193E-01
RMM:   2    -0.249921328859E+03   -0.10397E-02   -0.18346E-02  4754   0.246E-01    0.113E-01
RMM:   3    -0.249921352338E+03   -0.23479E-04   -0.10809E-03  3660   0.856E-02    0.988E-02
RMM:   4    -0.249921206287E+03    0.14605E-03   -0.89653E-04  3752   0.540E-02    0.585E-02
RMM:   5    -0.249921179080E+03    0.27206E-04   -0.14949E-04  2762   0.349E-02
  22 F= -.24992118E+03 E0= -.24992507E+03  d E =0.155507E-01
       N       E                     dE             d eps       ncg     rms          rms(c)
DAV:   1    -0.249918991531E+03    0.22148E-02   -0.21804E+00  4800   0.282E+00    0.248E-01
RMM:   2    -0.249920934863E+03   -0.19433E-02   -0.36588E-02  4796   0.358E-01    0.333E-02
RMM:   3    -0.249921195527E+03   -0.26066E-03   -0.23523E-03  4259   0.129E-01    0.241E-02
RMM:   4    -0.249921236584E+03   -0.41056E-04   -0.46435E-04  3213   0.368E-02
  23 F= -.24992124E+03 E0= -.24992512E+03  d E =0.155156E-01
       N       E                     dE             d eps       ncg     rms          rms(c)
DAV:   1    -0.249922012658E+03   -0.81713E-03   -0.10439E+00  4800   0.198E+00    0.181E-01
RMM:   2    -0.249923166004E+03   -0.11533E-02   -0.16769E-02  4742   0.248E-01    0.107E-01
RMM:   3    -0.249923151684E+03    0.14320E-04   -0.13656E-03  3973   0.841E-02    0.588E-02
RMM:   4    -0.249923106445E+03    0.45239E-04   -0.29621E-04  2960   0.369E-02
  24 F= -.24992311E+03 E0= -.24992697E+03  d E =0.154440E-01
       N       E                     dE             d eps       ncg     rms          rms(c)
DAV:   1    -0.249922145237E+03    0.10064E-02   -0.19910E+00  4800   0.277E+00    0.258E-01
RMM:   2    -0.249923768185E+03   -0.16229E-02   -0.27378E-02  4791   0.346E-01    0.352E-02
RMM:   3    -0.249923961956E+03   -0.19377E-03   -0.19581E-03  4482   0.103E-01    0.311E-02
RMM:   4    -0.249923980086E+03   -0.18130E-04   -0.23796E-04  2898   0.296E-02
  25 F= -.24992398E+03 E0= -.24992789E+03  d E =0.156239E-01
       N       E                     dE             d eps       ncg     rms          rms(c)
DAV:   1    -0.249919163215E+03    0.47987E-02   -0.10390E+00  4800   0.208E+00    0.175E-01
RMM:   2    -0.249920562353E+03   -0.13991E-02   -0.17584E-02  4760   0.258E-01    0.113E-01
RMM:   3    -0.249920605869E+03   -0.43516E-04   -0.10865E-03  3761   0.850E-02    0.924E-02
RMM:   4    -0.249920483398E+03    0.12247E-03   -0.71247E-04  3481   0.484E-02    0.365E-02
RMM:   5    -0.249920480332E+03    0.30658E-05   -0.80016E-05  2627   0.294E-02
  26 F= -.24992048E+03 E0= -.24992434E+03  d E =0.154318E-01
       N       E                     dE             d eps       ncg     rms          rms(c)
DAV:   1    -0.249919317780E+03    0.11656E-02   -0.21739E+00  4800   0.290E+00    0.246E-01
RMM:   2    -0.249920975713E+03   -0.16579E-02   -0.27879E-02  4779   0.329E-01    0.343E-02
RMM:   3    -0.249921114521E+03   -0.13881E-03   -0.14854E-03  4081   0.107E-01    0.224E-02
RMM:   4    -0.249921145377E+03   -0.30856E-04   -0.35650E-04  3071   0.347E-02
  27 F= -.24992115E+03 E0= -.24992504E+03  d E =0.155895E-01
       N       E                     dE             d eps       ncg     rms          rms(c)
DAV:   1    -0.249920193885E+03    0.92064E-03   -0.10671E+00  4800   0.206E+00    0.173E-01
RMM:   2    -0.249921304255E+03   -0.11104E-02   -0.16027E-02  4751   0.246E-01    0.113E-01
RMM:   3    -0.249921232977E+03    0.71278E-04   -0.10810E-03  3801   0.914E-02    0.889E-02
RMM:   4    -0.249921118184E+03    0.11479E-03   -0.72731E-04  3497   0.447E-02    0.648E-02
RMM:   5    -0.249921096522E+03    0.21662E-04   -0.16043E-04  2765   0.321E-02
  28 F= -.24992110E+03 E0= -.24992496E+03  d E =0.154685E-01
       N       E                     dE             d eps       ncg     rms          rms(c)
DAV:   1    -0.249919872340E+03    0.12458E-02   -0.21436E+00  4800   0.285E+00    0.238E-01
RMM:   2    -0.249921723192E+03   -0.18509E-02   -0.34071E-02  4796   0.358E-01    0.473E-02
RMM:   3    -0.249921949227E+03   -0.22603E-03   -0.24141E-03  4439   0.125E-01    0.317E-02
RMM:   4    -0.249921955024E+03   -0.57974E-05   -0.45722E-04  3225   0.384E-02
  29 F= -.24992196E+03 E0= -.24992584E+03  d E =0.155551E-01
       N       E                     dE             d eps       ncg     rms          rms(c)
DAV:   1    -0.249923093364E+03   -0.11441E-02   -0.10146E+00  4800   0.203E+00    0.185E-01
RMM:   2    -0.249923890762E+03   -0.79740E-03   -0.14105E-02  4756   0.255E-01    0.113E-01
RMM:   3    -0.249923819440E+03    0.71322E-04   -0.11945E-03  4035   0.811E-02    0.680E-02
RMM:   4    -0.249923702006E+03    0.11743E-03   -0.48097E-04  3231   0.447E-02    0.303E-02
RMM:   5    -0.249923723015E+03   -0.21009E-04   -0.11342E-04  2671   0.307E-02
  30 F= -.24992372E+03 E0= -.24992761E+03  d E =0.155460E-01
       N       E                     dE             d eps       ncg     rms          rms(c)
DAV:   1    -0.249921226197E+03    0.24758E-02   -0.20071E+00  4800   0.286E+00    0.268E-01
RMM:   2    -0.249922581439E+03   -0.13552E-02   -0.28889E-02  4794   0.387E-01    0.406E-02
RMM:   3    -0.249922780887E+03   -0.19945E-03   -0.22692E-03  4769   0.112E-01    0.271E-02
RMM:   4    -0.249922800742E+03   -0.19856E-04   -0.27080E-04  2941   0.310E-02
  31 F= -.24992280E+03 E0= -.24992669E+03  d E =0.155393E-01
       N       E                     dE             d eps       ncg     rms          rms(c)
DAV:   1    -0.249919722510E+03    0.30584E-02   -0.11203E+00  4800   0.210E+00    0.181E-01
RMM:   2    -0.249921355439E+03   -0.16329E-02   -0.22407E-02  4737   0.286E-01    0.105E-01
RMM:   3    -0.249921392833E+03   -0.37394E-04   -0.14921E-03  3916   0.999E-02    0.836E-02
RMM:   4    -0.249921305451E+03    0.87382E-04   -0.82241E-04  3497   0.495E-02
  32 F= -.24992131E+03 E0= -.24992523E+03  d E =0.157089E-01
       N       E                     dE             d eps       ncg     rms          rms(c)
DAV:   1    -0.249918866832E+03    0.25260E-02   -0.21525E+00  4800   0.278E+00    0.233E-01
RMM:   2    -0.249921069123E+03   -0.22023E-02   -0.35119E-02  4740   0.322E-01    0.348E-02
RMM:   3    -0.249921221788E+03   -0.15266E-03   -0.19241E-03  3971   0.112E-01    0.250E-02
RMM:   4    -0.249921260068E+03   -0.38281E-04   -0.36290E-04  3068   0.356E-02
  33 F= -.24992126E+03 E0= -.24992514E+03  d E =0.155172E-01
       N       E                     dE             d eps       ncg     rms          rms(c)
DAV:   1    -0.249919275102E+03    0.19467E-02   -0.10780E+00  4808   0.197E+00    0.171E-01
RMM:   2    -0.249920538811E+03   -0.12637E-02   -0.16959E-02  4640   0.224E-01    0.115E-01
RMM:   3    -0.249920494229E+03    0.44582E-04   -0.87825E-04  3386   0.723E-02
  34 F= -.24992049E+03 E0= -.24992435E+03  d E =0.154346E-01
       N       E                     dE             d eps       ncg     rms          rms(c)
DAV:   1    -0.249917348594E+03    0.31902E-02   -0.22219E+00  4800   0.273E+00    0.237E-01
RMM:   2    -0.249919586101E+03   -0.22375E-02   -0.32833E-02  4729   0.300E-01    0.757E-02
RMM:   3    -0.249919569923E+03    0.16178E-04   -0.17621E-03  3860   0.945E-02    0.379E-02
RMM:   4    -0.249919593205E+03   -0.23283E-04   -0.37975E-04  3055   0.364E-02
  35 F= -.24991959E+03 E0= -.24992347E+03  d E =0.155151E-01
       N       E                     dE             d eps       ncg     rms          rms(c)
DAV:   1    -0.249920603970E+03   -0.10340E-02   -0.10814E+00  4800   0.195E+00    0.166E-01
RMM:   2    -0.249922006854E+03   -0.14029E-02   -0.16972E-02  4616   0.221E-01    0.108E-01
RMM:   3    -0.249921958560E+03    0.48294E-04   -0.87684E-04  3432   0.750E-02
  36 F= -.24992196E+03 E0= -.24992585E+03  d E =0.155493E-01
       N       E                     dE             d eps       ncg     rms          rms(c)
DAV:   1    -0.249919113291E+03    0.28936E-02   -0.21352E+00  4800   0.282E+00    0.224E-01
RMM:   2    -0.249921829570E+03   -0.27163E-02   -0.35907E-02  4751   0.331E-01    0.556E-02
RMM:   3    -0.249921946035E+03   -0.11646E-03   -0.21425E-03  4060   0.123E-01    0.427E-02
RMM:   4    -0.249921933234E+03    0.12800E-04   -0.50428E-04  3348   0.433E-02
  37 F= -.24992193E+03 E0= -.24992581E+03  d E =0.154881E-01
       N       E                     dE             d eps       ncg     rms          rms(c)
DAV:   1    -0.249924400931E+03   -0.24549E-02   -0.60714E-01  4800   0.151E+00    0.140E-01
RMM:   2    -0.249925235298E+03   -0.83437E-03   -0.10183E-02  4551   0.175E-01    0.647E-02
RMM:   3    -0.249925254281E+03   -0.18983E-04   -0.64232E-04  3299   0.656E-02
  38 F= -.24992525E+03 E0= -.24992913E+03  d E =0.154840E-01
       N       E                     dE             d eps       ncg     rms          rms(c)
DAV:   1    -0.249925018135E+03    0.21716E-03   -0.33230E-01  4888   0.955E-01    0.171E-01
RMM:   2    -0.249925215510E+03   -0.19738E-03   -0.40147E-03  4306   0.107E-01    0.367E-02
RMM:   3    -0.249925212513E+03    0.29976E-05   -0.23722E-04  2910   0.399E-02
  39 F= -.24992521E+03 E0= -.24992913E+03  d E =0.156559E-01
       N       E                     dE             d eps       ncg     rms          rms(c)
DAV:   1    -0.249924661642E+03    0.55387E-03   -0.16683E-01  4944   0.678E-01    0.140E-01
RMM:   2    -0.249924621936E+03    0.39706E-04   -0.21162E-03  3937   0.810E-02    0.663E-02
RMM:   3    -0.249924583280E+03    0.38656E-04   -0.33604E-04  3007   0.379E-02
  40 F= -.24992458E+03 E0= -.24992847E+03  d E =0.155364E-01
       N       E                     dE             d eps       ncg     rms          rms(c)
DAV:   1    -0.249925455745E+03   -0.83381E-03   -0.33425E-01  4816   0.960E-01    0.183E-01
RMM:   2    -0.249925516266E+03   -0.60520E-04   -0.43669E-03  4360   0.111E-01    0.310E-02
RMM:   3    -0.249925489333E+03    0.26932E-04   -0.20218E-04  2831   0.374E-02
  41 F= -.24992549E+03 E0= -.24992936E+03  d E =0.154680E-01
       N       E                     dE             d eps       ncg     rms          rms(c)
DAV:   1    -0.249923888988E+03    0.16273E-02   -0.17792E-01  4888   0.700E-01    0.186E-01
RMM:   2    -0.249923541688E+03    0.34730E-03   -0.50112E-03  4362   0.123E-01    0.836E-02
RMM:   3    -0.249923482317E+03    0.59371E-04   -0.85003E-04  3487   0.486E-02
  42 F= -.24992348E+03 E0= -.24992734E+03  d E =0.154195E-01
       N       E                     dE             d eps       ncg     rms          rms(c)
DAV:   1    -0.249923653209E+03   -0.11152E-03   -0.36373E-01  4928   0.100E+00    0.261E-01
RMM:   2    -0.249922966318E+03    0.68689E-03   -0.11266E-02  4596   0.170E-01    0.433E-02
RMM:   3    -0.249922977622E+03   -0.11304E-04   -0.68955E-04  3385   0.570E-02
  43 F= -.24992298E+03 E0= -.24992685E+03  d E =0.155003E-01
       N       E                     dE             d eps       ncg     rms          rms(c)
DAV:   1    -0.249923327247E+03   -0.36093E-03   -0.17588E-01  5000   0.720E-01    0.179E-01
RMM:   2    -0.249923305264E+03    0.21983E-04   -0.43087E-03  4278   0.110E-01    0.926E-02
RMM:   3    -0.249923238660E+03    0.66604E-04   -0.43892E-04  3096   0.436E-02
  44 F= -.24992324E+03 E0= -.24992714E+03  d E =0.156011E-01
       N       E                     dE             d eps       ncg     rms          rms(c)
DAV:   1    -0.249923754612E+03   -0.44935E-03   -0.36292E-01  4816   0.932E-01    0.260E-01
RMM:   2    -0.249922961345E+03    0.79327E-03   -0.11484E-02  4606   0.170E-01    0.396E-02
RMM:   3    -0.249923020442E+03   -0.59097E-04   -0.57261E-04  3242   0.561E-02
  45 F= -.24992302E+03 E0= -.24992691E+03  d E =0.155465E-01
       N       E                     dE             d eps       ncg     rms          rms(c)
DAV:   1    -0.249924553689E+03   -0.15923E-02   -0.16590E-01  4800   0.637E-01    0.125E-01
RMM:   2    -0.249924615473E+03   -0.61785E-04   -0.18867E-03  3709   0.717E-02    0.603E-02
RMM:   3    -0.249924619864E+03   -0.43904E-05   -0.15057E-04  2780   0.313E-02
  46 F= -.24992462E+03 E0= -.24992848E+03  d E =0.154344E-01
       N       E                     dE             d eps       ncg     rms          rms(c)
DAV:   1    -0.249925208848E+03   -0.59338E-03   -0.33757E-01  4904   0.903E-01    0.187E-01
RMM:   2    -0.249925248736E+03   -0.39887E-04   -0.39482E-03  4131   0.104E-01    0.364E-02
RMM:   3    -0.249925241991E+03    0.67446E-05   -0.24241E-04  2871   0.381E-02
  47 F= -.24992524E+03 E0= -.24992912E+03  d E =0.155183E-01
       N       E                     dE             d eps       ncg     rms          rms(c)
DAV:   1    -0.249925584002E+03   -0.33527E-03   -0.16505E-01  4872   0.629E-01    0.117E-01
RMM:   2    -0.249925700106E+03   -0.11610E-03   -0.13861E-03  3516   0.641E-02    0.606E-02
RMM:   3    -0.249925694108E+03    0.59974E-05   -0.20552E-04  2843   0.320E-02
  48 F= -.24992569E+03 E0= -.24992960E+03  d E =0.156057E-01
       N       E                     dE             d eps       ncg     rms          rms(c)
DAV:   1    -0.249924555864E+03    0.11442E-02   -0.32877E-01  4800   0.888E-01    0.166E-01
RMM:   2    -0.249924777353E+03   -0.22149E-03   -0.31213E-03  3960   0.931E-02    0.250E-02
RMM:   3    -0.249924781387E+03   -0.40340E-05   -0.15470E-04  2742   0.331E-02
  49 F= -.24992478E+03 E0= -.24992866E+03  d E =0.155266E-01
       N       E                     dE             d eps       ncg     rms          rms(c)
DAV:   1    -0.249925055550E+03   -0.27820E-03   -0.16415E-01  4856   0.693E-01    0.117E-01
RMM:   2    -0.249925208602E+03   -0.15305E-03   -0.17242E-03  3763   0.720E-02    0.623E-02
RMM:   3    -0.249925213191E+03   -0.45889E-05   -0.27532E-04  2880   0.356E-02
  50 F= -.24992521E+03 E0= -.24992910E+03  d E =0.155603E-01
       N       E                     dE             d eps       ncg     rms          rms(c)
DAV:   1    -0.249925219444E+03   -0.10843E-04   -0.32875E-01  4848   0.926E-01    0.166E-01
RMM:   2    -0.249925392731E+03   -0.17329E-03   -0.29425E-03  4211   0.971E-02    0.245E-02
RMM:   3    -0.249925422741E+03   -0.30010E-04   -0.15332E-04  2745   0.363E-02
  51 F= -.24992542E+03 E0= -.24992930E+03  d E =0.155235E-01
       N       E                     dE             d eps       ncg     rms          rms(c)
DAV:   1    -0.249922815886E+03    0.25768E-02   -0.17237E-01  4912   0.678E-01    0.176E-01
RMM:   2    -0.249922593757E+03    0.22213E-03   -0.34784E-03  4262   0.105E-01    0.925E-02
RMM:   3    -0.249922521532E+03    0.72225E-04   -0.61120E-04  3250   0.441E-02
  52 F= -.24992252E+03 E0= -.24992646E+03  d E =0.157359E-01
       N       E                     dE             d eps       ncg     rms          rms(c)
DAV:   1    -0.249923949239E+03   -0.13555E-02   -0.36681E-01  5016   0.997E-01    0.286E-01
RMM:   2    -0.249922650185E+03    0.12991E-02   -0.12839E-02  4713   0.186E-01    0.350E-02
RMM:   3    -0.249922738136E+03   -0.87951E-04   -0.64380E-04  3375   0.613E-02
  53 F= -.24992274E+03 E0= -.24992661E+03  d E =0.154855E-01
       N       E                     dE             d eps       ncg     rms          rms(c)
DAV:   1    -0.249926110973E+03   -0.34608E-02   -0.17552E-01  5032   0.679E-01    0.185E-01
RMM:   2    -0.249925740401E+03    0.37057E-03   -0.43976E-03  4400   0.112E-01    0.655E-02
RMM:   3    -0.249925726779E+03    0.13622E-04   -0.42991E-04  3137   0.458E-02
  54 F= -.24992573E+03 E0= -.24992960E+03  d E =0.154813E-01
       N       E                     dE             d eps       ncg     rms          rms(c)
DAV:   1    -0.249924870486E+03    0.86992E-03   -0.32249E-01  4848   0.928E-01    0.172E-01
RMM:   2    -0.249925079937E+03   -0.20945E-03   -0.33765E-03  4400   0.108E-01    0.250E-02
RMM:   3    -0.249925083622E+03   -0.36848E-05   -0.18997E-04  2817   0.368E-02
  55 F= -.24992508E+03 E0= -.24992896E+03  d E =0.155165E-01
       N       E                     dE             d eps       ncg     rms          rms(c)
DAV:   1    -0.249925175411E+03   -0.95474E-04   -0.16307E-01  4888   0.673E-01    0.120E-01
RMM:   2    -0.249925334276E+03   -0.15886E-03   -0.18016E-03  3813   0.752E-02    0.612E-02
RMM:   3    -0.249925331492E+03    0.27841E-05   -0.16689E-04  2797   0.339E-02
  56 F= -.24992533E+03 E0= -.24992922E+03  d E =0.155475E-01
       N       E                     dE             d eps       ncg     rms          rms(c)
DAV:   1    -0.249925017190E+03    0.31709E-03   -0.33183E-01  4808   0.866E-01    0.166E-01
RMM:   2    -0.249925265581E+03   -0.24839E-03   -0.30897E-03  3972   0.927E-02    0.309E-02
RMM:   3    -0.249925249531E+03    0.16050E-04   -0.17849E-04  2799   0.339E-02
  57 F= -.24992525E+03 E0= -.24992914E+03  d E =0.155710E-01
       N       E                     dE             d eps       ncg     rms          rms(c)
DAV:   1    -0.249922748705E+03    0.25169E-02   -0.18073E-01  4864   0.640E-01    0.180E-01
RMM:   2    -0.249922600433E+03    0.14827E-03   -0.39818E-03  4215   0.104E-01    0.985E-02
RMM:   3    -0.249922562218E+03    0.38215E-04   -0.10454E-03  3675   0.522E-02    0.499E-02
RMM:   4    -0.249922485043E+03    0.77175E-04   -0.23323E-04  2857   0.356E-02
  58 F= -.24992249E+03 E0= -.24992639E+03  d E =0.156348E-01
       N       E                     dE             d eps       ncg     rms          rms(c)
DAV:   1    -0.249923888482E+03   -0.13263E-02   -0.37029E-01  4816   0.918E-01    0.283E-01
RMM:   2    -0.249922805596E+03    0.10829E-02   -0.13171E-02  4613   0.175E-01    0.282E-02
RMM:   3    -0.249922872473E+03   -0.66877E-04   -0.77944E-04  3504   0.581E-02
  59 F= -.24992287E+03 E0= -.24992676E+03  d E =0.155536E-01
       N       E                     dE             d eps       ncg     rms          rms(c)
DAV:   1    -0.249925442006E+03   -0.26364E-02   -0.17968E-01  4944   0.641E-01    0.176E-01
RMM:   2    -0.249925156371E+03    0.28564E-03   -0.45393E-03  4190   0.103E-01    0.625E-02
RMM:   3    -0.249925175593E+03   -0.19222E-04   -0.42748E-04  3121   0.410E-02
  60 F= -.24992518E+03 E0= -.24992905E+03  d E =0.155003E-01
       N       E                     dE             d eps       ncg     rms          rms(c)
DAV:   1    -0.249925133949E+03    0.22422E-04   -0.33237E-01  4872   0.867E-01    0.166E-01
RMM:   2    -0.249925390856E+03   -0.25691E-03   -0.32627E-03  3982   0.959E-02    0.254E-02
RMM:   3    -0.249925389498E+03    0.13579E-05   -0.17990E-04  2787   0.339E-02
  61 F= -.24992539E+03 E0= -.24992927E+03  d E =0.155076E-01
       N       E                     dE             d eps       ncg     rms          rms(c)
DAV:   1    -0.249924841615E+03    0.54924E-03   -0.16682E-01  4936   0.691E-01    0.128E-01
RMM:   2    -0.249924953897E+03   -0.11228E-03   -0.20301E-03  3840   0.804E-02    0.741E-02
RMM:   3    -0.249924870731E+03    0.83165E-04   -0.37168E-04  3055   0.379E-02
  62 F= -.24992487E+03 E0= -.24992875E+03  d E =0.155357E-01
       N       E                     dE             d eps       ncg     rms          rms(c)
DAV:   1    -0.249924802221E+03    0.15168E-03   -0.33730E-01  5016   0.926E-01    0.199E-01
RMM:   2    -0.249924749297E+03    0.52925E-04   -0.61460E-03  4561   0.134E-01    0.418E-02
RMM:   3    -0.249924710507E+03    0.38790E-04   -0.29626E-04  2973   0.429E-02
  63 F= -.24992471E+03 E0= -.24992858E+03  d E =0.154941E-01
       N       E                     dE             d eps       ncg     rms          rms(c)
DAV:   1    -0.249925241092E+03   -0.49180E-03   -0.17018E-01  5048   0.661E-01    0.151E-01
RMM:   2    -0.249925066950E+03    0.17414E-03   -0.26107E-03  4041   0.924E-02    0.659E-02
RMM:   3    -0.249925044187E+03    0.22763E-04   -0.38312E-04  3036   0.363E-02
  64 F= -.24992504E+03 E0= -.24992895E+03  d E =0.156121E-01
       N       E                     dE             d eps       ncg     rms          rms(c)
DAV:   1    -0.249925003477E+03    0.63474E-04   -0.33203E-01  4816   0.912E-01    0.178E-01
RMM:   2    -0.249925034440E+03   -0.30963E-04   -0.40972E-03  4244   0.107E-01    0.288E-02
RMM:   3    -0.249925050923E+03   -0.16483E-04   -0.18209E-04  2820   0.374E-02
  65 F= -.24992505E+03 E0= -.24992894E+03  d E =0.155472E-01
       N       E                     dE             d eps       ncg     rms          rms(c)
DAV:   1    -0.249924064439E+03    0.97000E-03   -0.17470E-01  4920   0.681E-01    0.182E-01
RMM:   2    -0.249923680472E+03    0.38397E-03   -0.40483E-03  4303   0.113E-01    0.884E-02
RMM:   3    -0.249923649636E+03    0.30836E-04   -0.89104E-04  3467   0.481E-02
  66 F= -.24992365E+03 E0= -.24992752E+03  d E =0.154652E-01
       N       E                     dE             d eps       ncg     rms          rms(c)
DAV:   1    -0.249924554958E+03   -0.87449E-03   -0.34358E-01  4808   0.958E-01    0.251E-01
RMM:   2    -0.249923778213E+03    0.77675E-03   -0.95266E-03  4526   0.163E-01    0.297E-02
RMM:   3    -0.249923816209E+03   -0.37996E-04   -0.51911E-04  3142   0.579E-02
  67 F= -.24992382E+03 E0= -.24992770E+03  d E =0.155377E-01
       N       E                     dE             d eps       ncg     rms          rms(c)
DAV:   1    -0.249924599500E+03   -0.82129E-03   -0.17533E-01  4864   0.716E-01    0.173E-01
RMM:   2    -0.249924341270E+03    0.25823E-03   -0.40792E-03  4196   0.112E-01    0.807E-02
RMM:   3    -0.249924244704E+03    0.96565E-04   -0.90164E-04  3473   0.489E-02
  68 F= -.24992424E+03 E0= -.24992815E+03  d E =0.156060E-01
       N       E                     dE             d eps       ncg     rms          rms(c)
DAV:   1    -0.249925094638E+03   -0.75337E-03   -0.34316E-01  4800   0.950E-01    0.210E-01
RMM:   2    -0.249924879054E+03    0.21558E-03   -0.63046E-03  4284   0.127E-01    0.287E-02
RMM:   3    -0.249924850322E+03    0.28732E-04   -0.31710E-04  2981   0.452E-02
  69 F= -.24992485E+03 E0= -.24992873E+03  d E =0.155320E-01
       N       E                     dE             d eps       ncg     rms          rms(c)
DAV:   1    -0.249924962191E+03   -0.83138E-04   -0.17239E-01  4944   0.680E-01    0.155E-01
RMM:   2    -0.249924807163E+03    0.15503E-03   -0.27068E-03  3864   0.866E-02    0.636E-02
RMM:   3    -0.249924788318E+03    0.18845E-04   -0.28027E-04  2931   0.353E-02
  70 F= -.24992479E+03 E0= -.24992865E+03  d E =0.154642E-01
       N       E                     dE             d eps       ncg     rms          rms(c)
DAV:   1    -0.249925373356E+03   -0.56619E-03   -0.33574E-01  4800   0.939E-01    0.178E-01
RMM:   2    -0.249925509252E+03   -0.13590E-03   -0.36399E-03  4005   0.101E-01    0.193E-02
RMM:   3    -0.249925492627E+03    0.16625E-04   -0.16512E-04  2758   0.349E-02
  71 F= -.24992549E+03 E0= -.24992938E+03  d E =0.155396E-01
       N       E                     dE             d eps       ncg     rms          rms(c)
DAV:   1    -0.249923422679E+03    0.20866E-02   -0.16668E-01  4952   0.665E-01    0.127E-01
RMM:   2    -0.249923613584E+03   -0.19090E-03   -0.17047E-03  3666   0.732E-02    0.840E-02
RMM:   3    -0.249923518442E+03    0.95142E-04   -0.33011E-04  2993   0.371E-02
  72 F= -.24992352E+03 E0= -.24992739E+03  d E =0.154783E-01
       N       E                     dE             d eps       ncg     rms          rms(c)
DAV:   1    -0.249924278525E+03   -0.66494E-03   -0.36116E-01  4976   0.977E-01    0.249E-01
RMM:   2    -0.249923695921E+03    0.58260E-03   -0.90841E-03  4426   0.149E-01    0.265E-02
RMM:   3    -0.249923698269E+03   -0.23476E-05   -0.41776E-04  3072   0.464E-02
  73 F= -.24992370E+03 E0= -.24992759E+03  d E =0.155796E-01
       N       E                     dE             d eps       ncg     rms          rms(c)
DAV:   1    -0.249920073641E+03    0.36223E-02   -0.64474E-01  4800   0.140E+00    0.175E-01
RMM:   2    -0.249920685608E+03   -0.61197E-03   -0.10139E-02  4310   0.165E-01    0.124E-01
RMM:   3    -0.249920558517E+03    0.12709E-03   -0.42511E-04  3050   0.451E-02    0.934E-02
RMM:   4    -0.249920346835E+03    0.21168E-03   -0.71984E-04  3366   0.410E-02    0.237E-02
RMM:   5    -0.249920345455E+03    0.13802E-05   -0.78712E-05  2631   0.243E-02
  74 F= -.24992035E+03 E0= -.24992424E+03  d E =0.155880E-01
       N       E                     dE             d eps       ncg     rms          rms(c)
DAV:   1    -0.249919538486E+03    0.80835E-03   -0.22354E+00  4800   0.254E+00    0.267E-01
RMM:   2    -0.249920238954E+03   -0.70047E-03   -0.25717E-02  4598   0.264E-01    0.270E-02
RMM:   3    -0.249920294042E+03   -0.55089E-04   -0.92007E-04  3436   0.685E-02
  75 F= -.24992029E+03 E0= -.24992418E+03  d E =0.155283E-01
       N       E                     dE             d eps       ncg     rms          rms(c)
DAV:   1    -0.249919811908E+03    0.42705E-03   -0.11183E+00  4800   0.182E+00    0.192E-01
RMM:   2    -0.249920386267E+03   -0.57436E-03   -0.11841E-02  4290   0.181E-01    0.124E-01
RMM:   3    -0.249920146486E+03    0.23978E-03   -0.72701E-04  3334   0.534E-02    0.636E-02
RMM:   4    -0.249920082826E+03    0.63659E-04   -0.34585E-04  3030   0.355E-02
  76 F= -.24992008E+03 E0= -.24992397E+03  d E =0.155669E-01
       N       E                     dE             d eps       ncg     rms          rms(c)
DAV:   1    -0.249919718517E+03    0.42797E-03   -0.22445E+00  4800   0.250E+00    0.266E-01
RMM:   2    -0.249920360085E+03   -0.64157E-03   -0.23128E-02  4479   0.247E-01    0.352E-02
RMM:   3    -0.249920356415E+03    0.36704E-05   -0.77123E-04  3321   0.596E-02
  77 F= -.24992036E+03 E0= -.24992423E+03  d E =0.154949E-01
       N       E                     dE             d eps       ncg     rms          rms(c)
DAV:   1    -0.249920563041E+03   -0.20296E-03   -0.11053E+00  4800   0.188E+00    0.186E-01
RMM:   2    -0.249921298871E+03   -0.73583E-03   -0.13065E-02  4418   0.195E-01    0.114E-01
RMM:   3    -0.249921131869E+03    0.16700E-03   -0.77655E-04  3416   0.590E-02    0.664E-02
RMM:   4    -0.249921051157E+03    0.80712E-04   -0.36555E-04  3047   0.364E-02
  78 F= -.24992105E+03 E0= -.24992496E+03  d E =0.156168E-01
       N       E                     dE             d eps       ncg     rms          rms(c)
DAV:   1    -0.249920209189E+03    0.92268E-03   -0.21944E+00  4800   0.270E+00    0.253E-01
RMM:   2    -0.249921417674E+03   -0.12085E-02   -0.26944E-02  4625   0.279E-01    0.379E-02
RMM:   3    -0.249921466228E+03   -0.48554E-04   -0.11547E-03  3686   0.741E-02    0.225E-02
RMM:   4    -0.249921475740E+03   -0.95119E-05   -0.21443E-04  2832   0.313E-02
  79 F= -.24992148E+03 E0= -.24992536E+03  d E =0.155350E-01
       N       E                     dE             d eps       ncg     rms          rms(c)
DAV:   1    -0.249924586557E+03   -0.31203E-02   -0.62201E-01  4800   0.143E+00    0.148E-01
RMM:   2    -0.249924977475E+03   -0.39092E-03   -0.73035E-03  4241   0.146E-01    0.703E-02
RMM:   3    -0.249924982595E+03   -0.51197E-05   -0.42463E-04  3109   0.453E-02
  80 F= -.24992498E+03 E0= -.24992884E+03  d E =0.154185E-01
       N       E                     dE             d eps       ncg     rms          rms(c)
DAV:   1    -0.249925366425E+03   -0.38895E-03   -0.33285E-01  4936   0.821E-01    0.169E-01
RMM:   2    -0.249925560678E+03   -0.19425E-03   -0.34203E-03  3757   0.882E-02    0.251E-02
RMM:   3    -0.249925561239E+03   -0.56046E-06   -0.16739E-04  2792   0.305E-02
  81 F= -.24992556E+03 E0= -.24992944E+03  d E =0.155233E-01
       N       E                     dE             d eps       ncg     rms          rms(c)
DAV:   1    -0.249922719328E+03    0.28414E-02   -0.17840E-01  5024   0.602E-01    0.179E-01
RMM:   2    -0.249922542828E+03    0.17650E-03   -0.40412E-03  3782   0.962E-02    0.954E-02
RMM:   3    -0.249922433773E+03    0.10906E-03   -0.76464E-04  3364   0.441E-02    0.425E-02
RMM:   4    -0.249922406844E+03    0.26928E-04   -0.12764E-04  2719   0.278E-02
  82 F= -.24992241E+03 E0= -.24992629E+03  d E =0.155284E-01
       N       E                     dE             d eps       ncg     rms          rms(c)
DAV:   1    -0.249923946917E+03   -0.15131E-02   -0.37346E-01  4968   0.876E-01    0.278E-01
RMM:   2    -0.249922981804E+03    0.96511E-03   -0.11589E-02  4142   0.150E-01    0.283E-02
RMM:   3    -0.249923013625E+03   -0.31821E-04   -0.52949E-04  3141   0.487E-02
  83 F= -.24992301E+03 E0= -.24992690E+03  d E =0.155469E-01
       N       E                     dE             d eps       ncg     rms          rms(c)
DAV:   1    -0.249925533851E+03   -0.25520E-02   -0.18046E-01  4976   0.603E-01    0.178E-01
RMM:   2    -0.249925193237E+03    0.34061E-03   -0.46402E-03  3861   0.980E-02    0.626E-02
RMM:   3    -0.249925183757E+03    0.94797E-05   -0.26227E-04  2882   0.355E-02
  84 F= -.24992518E+03 E0= -.24992906E+03  d E =0.154914E-01
       N       E                     dE             d eps       ncg     rms          rms(c)
DAV:   1    -0.249925152300E+03    0.40936E-04   -0.33281E-01  4928   0.822E-01    0.168E-01
RMM:   2    -0.249925397869E+03   -0.24557E-03   -0.31151E-03  3820   0.892E-02    0.183E-02
RMM:   3    -0.249925396598E+03    0.12710E-05   -0.16274E-04  2768   0.294E-02
  85 F= -.24992540E+03 E0= -.24992929E+03  d E =0.155735E-01
       N       E                     dE             d eps       ncg     rms          rms(c)
DAV:   1    -0.249923426551E+03    0.19713E-02   -0.17190E-01  5016   0.626E-01    0.152E-01
RMM:   2    -0.249923399142E+03    0.27410E-04   -0.30942E-03  3667   0.854E-02    0.905E-02
RMM:   3    -0.249923296328E+03    0.10281E-03   -0.36830E-04  3012   0.348E-02    0.423E-02
RMM:   4    -0.249923279893E+03    0.16435E-04   -0.14254E-04  2724   0.250E-02
  86 F= -.24992328E+03 E0= -.24992717E+03  d E =0.155600E-01
       N       E                     dE             d eps       ncg     rms          rms(c)
DAV:   1    -0.249924043190E+03   -0.74686E-03   -0.36179E-01  4968   0.866E-01    0.257E-01
RMM:   2    -0.249923309306E+03    0.73388E-03   -0.10008E-02  4313   0.141E-01    0.250E-02
RMM:   3    -0.249923367918E+03   -0.58611E-04   -0.48739E-04  3136   0.449E-02
  87 F= -.24992337E+03 E0= -.24992726E+03  d E =0.155596E-01
       N       E                     dE             d eps       ncg     rms          rms(c)
DAV:   1    -0.249924469283E+03   -0.11600E-02   -0.16736E-01  4944   0.585E-01    0.123E-01
RMM:   2    -0.249924605143E+03   -0.13586E-03   -0.19312E-03  3544   0.644E-02    0.658E-02
RMM:   3    -0.249924597963E+03    0.71798E-05   -0.18151E-04  2842   0.299E-02
  88 F= -.24992460E+03 E0= -.24992846E+03  d E =0.154464E-01
       N       E                     dE             d eps       ncg     rms          rms(c)
DAV:   1    -0.249924614408E+03   -0.92647E-05   -0.33912E-01  4936   0.834E-01    0.202E-01
RMM:   2    -0.249924550756E+03    0.63652E-04   -0.54417E-03  3845   0.107E-01    0.235E-02
RMM:   3    -0.249924549382E+03    0.13740E-05   -0.26775E-04  2860   0.341E-02
  89 F= -.24992455E+03 E0= -.24992844E+03  d E =0.155602E-01
       N       E                     dE             d eps       ncg     rms          rms(c)
DAV:   1    -0.249925050770E+03   -0.50001E-03   -0.16646E-01  4912   0.589E-01    0.123E-01
RMM:   2    -0.249925162854E+03   -0.11208E-03   -0.18686E-03  3523   0.650E-02    0.621E-02
RMM:   3    -0.249925139502E+03    0.23352E-04   -0.19552E-04  2834   0.297E-02
  90 F= -.24992514E+03 E0= -.24992904E+03  d E =0.155848E-01
       N       E                     dE             d eps       ncg     rms          rms(c)
DAV:   1    -0.249925315725E+03   -0.15287E-03   -0.33169E-01  4888   0.824E-01    0.163E-01
RMM:   2    -0.249925620513E+03   -0.30479E-03   -0.30027E-03  3743   0.864E-02    0.246E-02
RMM:   3    -0.249925611904E+03    0.86081E-05   -0.14911E-04  2748   0.285E-02
  91 F= -.24992561E+03 E0= -.24992948E+03  d E =0.154650E-01
       N       E                     dE             d eps       ncg     rms          rms(c)
DAV:   1    -0.249924507947E+03    0.11126E-02   -0.16821E-01  5000   0.634E-01    0.134E-01
RMM:   2    -0.249924556544E+03   -0.48597E-04   -0.26568E-03  3657   0.757E-02    0.742E-02
RMM:   3    -0.249924530048E+03    0.26496E-04   -0.24642E-04  2887   0.322E-02
  92 F= -.24992453E+03 E0= -.24992845E+03  d E =0.156890E-01
       N       E                     dE             d eps       ncg     rms          rms(c)
DAV:   1    -0.249924141328E+03    0.41522E-03   -0.34521E-01  5000   0.860E-01    0.217E-01
RMM:   2    -0.249923879050E+03    0.26228E-03   -0.62788E-03  4148   0.120E-01    0.347E-02
RMM:   3    -0.249923879301E+03   -0.25088E-06   -0.30976E-04  2941   0.385E-02
  93 F= -.24992388E+03 E0= -.24992777E+03  d E =0.155501E-01
       N       E                     dE             d eps       ncg     rms          rms(c)
DAV:   1    -0.249924895378E+03   -0.10163E-02   -0.17349E-01  4960   0.613E-01    0.158E-01
RMM:   2    -0.249924742284E+03    0.15309E-03   -0.32984E-03  3815   0.837E-02    0.667E-02
RMM:   3    -0.249924728746E+03    0.13538E-04   -0.22863E-04  2860   0.322E-02
  94 F= -.24992473E+03 E0= -.24992860E+03  d E =0.154870E-01
       N       E                     dE             d eps       ncg     rms          rms(c)
DAV:   1    -0.249925446969E+03   -0.70468E-03   -0.33222E-01  4840   0.842E-01    0.173E-01
RMM:   2    -0.249925584837E+03   -0.13787E-03   -0.37464E-03  3830   0.895E-02    0.247E-02
RMM:   3    -0.249925578065E+03    0.67713E-05   -0.18147E-04  2785   0.305E-02
  95 F= -.24992558E+03 E0= -.24992945E+03  d E =0.154737E-01
       N       E                     dE             d eps       ncg     rms          rms(c)
DAV:   1    -0.249923489665E+03    0.20952E-02   -0.16594E-01  4896   0.596E-01    0.120E-01
RMM:   2    -0.249923632286E+03   -0.14262E-03   -0.15718E-03  3493   0.626E-02    0.738E-02
RMM:   3    -0.249923583091E+03    0.49196E-04   -0.21269E-04  2833   0.302E-02
  96 F= -.24992358E+03 E0= -.24992747E+03  d E =0.155517E-01
       N       E                     dE             d eps       ncg     rms          rms(c)
DAV:   1    -0.249924640648E+03   -0.10084E-02   -0.35358E-01  4904   0.869E-01    0.231E-01
RMM:   2    -0.249924266986E+03    0.37366E-03   -0.74045E-03  4155   0.125E-01    0.247E-02
RMM:   3    -0.249924284431E+03   -0.17446E-04   -0.32244E-04  2945   0.412E-02
  97 F= -.24992428E+03 E0= -.24992817E+03  d E =0.155293E-01
       N       E                     dE             d eps       ncg     rms          rms(c)
DAV:   1    -0.249924193115E+03    0.73870E-04   -0.17182E-01  4880   0.695E-01    0.164E-01
RMM:   2    -0.249924122976E+03    0.70139E-04   -0.40580E-03  4248   0.103E-01    0.906E-02
RMM:   3    -0.249924045242E+03    0.77734E-04   -0.74792E-04  3369   0.477E-02
  98 F= -.24992405E+03 E0= -.24992796E+03  d E =0.156731E-01
       N       E                     dE             d eps       ncg     rms          rms(c)
DAV:   1    -0.249924483641E+03   -0.36067E-03   -0.34321E-01  4872   0.915E-01    0.242E-01
RMM:   2    -0.249923718687E+03    0.76495E-03   -0.85825E-03  4627   0.145E-01    0.339E-02
RMM:   3    -0.249923750888E+03   -0.32201E-04   -0.42435E-04  3077   0.510E-02
  99 F= -.24992375E+03 E0= -.24992762E+03  d E =0.154736E-01
       N       E                     dE             d eps       ncg     rms          rms(c)
DAV:   1    -0.249925385797E+03   -0.16671E-02   -0.17268E-01  4928   0.646E-01    0.187E-01
RMM:   2    -0.249924866864E+03    0.51893E-03   -0.45204E-03  4411   0.109E-01    0.651E-02
RMM:   3    -0.249924873431E+03   -0.65673E-05   -0.43133E-04  3076   0.416E-02
 100 F= -.24992487E+03 E0= -.24992877E+03  d E =0.155995E-01
       N       E                     dE             d eps       ncg     rms          rms(c)
DAV:   1    -0.249924945895E+03   -0.79030E-04   -0.32973E-01  4800   0.891E-01    0.192E-01
RMM:   2    -0.249924850736E+03    0.95158E-04   -0.43916E-03  4369   0.111E-01    0.257E-02
RMM:   3    -0.249924861933E+03   -0.11196E-04   -0.23421E-04  2849   0.377E-02
 101 F= -.24992486E+03 E0= -.24992874E+03  d E =0.155179E-01
       N       E                     dE             d eps       ncg     rms          rms(c)
DAV:   1    -0.249925035321E+03   -0.18458E-03   -0.16726E-01  4848   0.634E-01    0.159E-01
RMM:   2    -0.249924861487E+03    0.17383E-03   -0.29850E-03  4117   0.916E-02    0.689E-02
RMM:   3    -0.249924852231E+03    0.92557E-05   -0.38312E-04  2985   0.377E-02
 102 F= -.24992485E+03 E0= -.24992873E+03  d E =0.155053E-01
       N       E                     dE             d eps       ncg     rms          rms(c)
DAV:   1    -0.249924987068E+03   -0.12558E-03   -0.32290E-01  4816   0.894E-01    0.198E-01
RMM:   2    -0.249924974514E+03    0.12554E-04   -0.47344E-03  4368   0.119E-01    0.218E-02
RMM:   3    -0.249924993645E+03   -0.19131E-04   -0.20728E-04  2809   0.378E-02
 103 F= -.24992499E+03 E0= -.24992887E+03  d E =0.154942E-01
       N       E                     dE             d eps       ncg     rms          rms(c)
DAV:   1    -0.249923148765E+03    0.18257E-02   -0.16838E-01  4912   0.719E-01    0.161E-01
RMM:   2    -0.249923267029E+03   -0.11826E-03   -0.40068E-03  4408   0.116E-01    0.100E-01
RMM:   3    -0.249923167853E+03    0.99175E-04   -0.70240E-04  3380   0.460E-02
 104 F= -.24992317E+03 E0= -.24992705E+03  d E =0.155290E-01
       N       E                     dE             d eps       ncg     rms          rms(c)
DAV:   1    -0.249923899451E+03   -0.63242E-03   -0.36270E-01  4840   0.101E+00    0.268E-01
RMM:   2    -0.249923030723E+03    0.86873E-03   -0.11915E-02  4687   0.177E-01    0.448E-02
RMM:   3    -0.249923088611E+03   -0.57887E-04   -0.51304E-04  3215   0.593E-02
 105 F= -.24992309E+03 E0= -.24992697E+03  d E =0.155213E-01
       N       E                     dE             d eps       ncg     rms          rms(c)
DAV:   1    -0.249924922741E+03   -0.18920E-02   -0.16772E-01  4944   0.676E-01    0.134E-01
RMM:   2    -0.249924959853E+03   -0.37112E-04   -0.20326E-03  3976   0.809E-02    0.654E-02
RMM:   3    -0.249924988429E+03   -0.28576E-04   -0.19979E-04  2822   0.345E-02
 106 F= -.24992499E+03 E0= -.24992887E+03  d E =0.155326E-01
       N       E                     dE             d eps       ncg     rms          rms(c)
DAV:   1    -0.249924868165E+03    0.91689E-04   -0.33460E-01  4880   0.958E-01    0.193E-01
RMM:   2    -0.249924825611E+03    0.42554E-04   -0.43057E-03  4384   0.115E-01    0.313E-02
RMM:   3    -0.249924851786E+03   -0.26175E-04   -0.21349E-04  2818   0.400E-02
 107 F= -.24992485E+03 E0= -.24992875E+03  d E =0.155949E-01
       N       E                     dE             d eps       ncg     rms          rms(c)
DAV:   1    -0.249925265131E+03   -0.43952E-03   -0.16092E-01  4856   0.675E-01    0.125E-01
RMM:   2    -0.249925359408E+03   -0.94278E-04   -0.14865E-03  3799   0.739E-02    0.658E-02
RMM:   3    -0.249925367383E+03   -0.79744E-05   -0.19676E-04  2801   0.342E-02
 108 F= -.24992537E+03 E0= -.24992925E+03  d E =0.155184E-01
       N       E                     dE             d eps       ncg     rms          rms(c)
DAV:   1    -0.249925154609E+03    0.20480E-03   -0.32471E-01  4824   0.953E-01    0.175E-01
RMM:   2    -0.249925359446E+03   -0.20484E-03   -0.31950E-03  4249   0.103E-01    0.233E-02
RMM:   3    -0.249925375001E+03   -0.15555E-04   -0.16356E-04  2769   0.368E-02
 109 F= -.24992538E+03 E0= -.24992925E+03  d E =0.155174E-01
