       N       E                     dE             d eps       ncg     rms          rms(c)
DAV:   1     0.352804885254E+04    0.35280E+04   -0.14371E+05  4808   0.117E+03
DAV:   2     0.186788034276E+03   -0.33413E+04   -0.30716E+04  5016   0.447E+02
DAV:   3    -0.247942045391E+03   -0.43473E+03   -0.40503E+03  6536   0.131E+02
DAV:   4    -0.281558350884E+03   -0.33616E+02   -0.30404E+02  7040   0.369E+01
DAV:   5    -0.282661923688E+03   -0.11036E+01   -0.10794E+01  6640   0.576E+00    0.277E+01
RMM:   6    -0.274769980955E+03    0.78919E+01   -0.13350E+01  5321   0.689E+00    0.237E+01
RMM:   7    -0.292615745359E+03   -0.17846E+02   -0.18391E+01  5415   0.716E+00    0.320E+01
RMM:   8    -0.273504017206E+03    0.19112E+02   -0.13276E+01  5274   0.651E+00    0.238E+01
RMM:   9    -0.259705678158E+03    0.13798E+02   -0.19288E+01  4881   0.111E+01    0.129E+01
RMM:  10    -0.258128031334E+03    0.15776E+01   -0.35877E+00  5850   0.342E+00    0.809E+00
RMM:  11    -0.257577465076E+03    0.55057E+00   -0.13736E+00  5040   0.249E+00    0.366E+00
RMM:  12    -0.257542152961E+03    0.35312E-01   -0.70961E-01  5103   0.186E+00    0.273E+00
RMM:  13    -0.257525253526E+03    0.16899E-01   -0.22393E-01  5524   0.945E-01    0.202E+00
RMM:  14    -0.257509298220E+03    0.15955E-01   -0.81595E-02  4858   0.575E-01    0.115E+00
RMM:  15    -0.257500001993E+03    0.92962E-02   -0.64874E-02  4825   0.599E-01    0.687E-01
RMM:  16    -0.257500043906E+03   -0.41913E-04   -0.23660E-02  5322   0.315E-01    0.509E-01
RMM:  17    -0.257503934476E+03   -0.38906E-02   -0.95758E-03  4963   0.178E-01    0.365E-01
RMM:  18    -0.257505300896E+03   -0.13664E-02   -0.70699E-03  4891   0.164E-01    0.288E-01
RMM:  19    -0.257503817453E+03    0.14834E-02   -0.38001E-03  4816   0.133E-01    0.188E-01
RMM:  20    -0.257503109038E+03    0.70841E-03   -0.18258E-03  4732   0.943E-02    0.125E-01
RMM:  21    -0.257502611241E+03    0.49780E-03   -0.19084E-03  4642   0.886E-02    0.928E-02
RMM:  22    -0.257502142952E+03    0.46829E-03   -0.10761E-03  3972   0.661E-02    0.448E-02
RMM:  23    -0.257501887064E+03    0.25589E-03   -0.31006E-04  3061   0.361E-02    0.353E-02
RMM:  24    -0.257501625271E+03    0.26179E-03   -0.35589E-04  3135   0.404E-02    0.250E-02
RMM:  25    -0.257501590706E+03    0.34565E-04   -0.25993E-04  2993   0.344E-02
   1 F= -.25750159E+03 E0= -.25751188E+03  d E =0.411417E-01
       N       E                     dE             d eps       ncg     rms          rms(c)
DAV:   1    -0.257496086241E+03    0.55390E-02   -0.54908E-01  4976   0.126E+00    0.123E-01
RMM:   2    -0.257496841325E+03   -0.75508E-03   -0.82401E-03  3980   0.140E-01    0.118E-01
RMM:   3    -0.257496793894E+03    0.47430E-04   -0.40392E-04  2992   0.437E-02
   2 F= -.25749679E+03 E0= -.25750712E+03  d E =0.412907E-01
       N       E                     dE             d eps       ncg     rms          rms(c)
DAV:   1    -0.257493864901E+03    0.29764E-02   -0.22358E+00  4888   0.256E+00    0.242E-01
RMM:   2    -0.257496059959E+03   -0.21951E-02   -0.32951E-02  4554   0.284E-01    0.411E-02
RMM:   3    -0.257496132952E+03   -0.72992E-04   -0.16110E-03  3516   0.804E-02    0.263E-02
RMM:   4    -0.257496162762E+03   -0.29811E-04   -0.28967E-04  2991   0.349E-02
   3 F= -.25749616E+03 E0= -.25750648E+03  d E =0.412592E-01
       N       E                     dE             d eps       ncg     rms          rms(c)
DAV:   1    -0.257496008183E+03    0.12477E-03   -0.10987E+00  4848   0.178E+00    0.171E-01
RMM:   2    -0.257497239988E+03   -0.12318E-02   -0.15279E-02  4199   0.190E-01    0.112E-01
RMM:   3    -0.257497182186E+03    0.57802E-04   -0.69744E-04  3106   0.540E-02
   4 F= -.25749718E+03 E0= -.25750750E+03  d E =0.412593E-01
       N       E                     dE             d eps       ncg     rms          rms(c)
DAV:   1    -0.257494780258E+03    0.24597E-02   -0.22212E+00  4816   0.259E+00    0.232E-01
RMM:   2    -0.257497209634E+03   -0.24294E-02   -0.34601E-02  4570   0.289E-01    0.498E-02
RMM:   3    -0.257497350794E+03   -0.14116E-03   -0.17066E-03  3511   0.848E-02    0.375E-02
RMM:   4    -0.257497329680E+03    0.21114E-04   -0.31048E-04  2990   0.347E-02
   5 F= -.25749733E+03 E0= -.25750761E+03  d E =0.411361E-01
       N       E                     dE             d eps       ncg     rms          rms(c)
DAV:   1    -0.257494938392E+03    0.24124E-02   -0.11036E+00  4816   0.182E+00    0.175E-01
RMM:   2    -0.257496146636E+03   -0.12082E-02   -0.15288E-02  4201   0.197E-01    0.125E-01
RMM:   3    -0.257496022217E+03    0.12442E-03   -0.68412E-04  3146   0.561E-02    0.938E-02
RMM:   4    -0.257495820052E+03    0.20216E-03   -0.82762E-04  3357   0.419E-02    0.243E-02
RMM:   5    -0.257495823771E+03   -0.37193E-05   -0.71396E-05  2612   0.245E-02
   6 F= -.25749582E+03 E0= -.25750613E+03  d E =0.412284E-01
       N       E                     dE             d eps       ncg     rms          rms(c)
DAV:   1    -0.257494224009E+03    0.15960E-02   -0.22255E+00  4800   0.257E+00    0.256E-01
RMM:   2    -0.257495509461E+03   -0.12855E-02   -0.27551E-02  4430   0.259E-01    0.353E-02
RMM:   3    -0.257495559035E+03   -0.49574E-04   -0.11470E-03  3404   0.656E-02    0.208E-02
RMM:   4    -0.257495559161E+03   -0.12609E-06   -0.19550E-04  2731   0.287E-02
   7 F= -.25749556E+03 E0= -.25750585E+03  d E =0.411826E-01
       N       E                     dE             d eps       ncg     rms          rms(c)
DAV:   1    -0.257494975092E+03    0.58394E-03   -0.11195E+00  4816   0.188E+00    0.174E-01
RMM:   2    -0.257496314800E+03   -0.13397E-02   -0.17090E-02  4333   0.207E-01    0.122E-01
RMM:   3    -0.257496290417E+03    0.24383E-04   -0.62809E-04  3046   0.524E-02
   8 F= -.25749629E+03 E0= -.25750659E+03  d E =0.412058E-01
       N       E                     dE             d eps       ncg     rms          rms(c)
DAV:   1    -0.257494170657E+03    0.21441E-02   -0.22632E+00  4800   0.261E+00    0.251E-01
RMM:   2    -0.257495754336E+03   -0.15837E-02   -0.27728E-02  4570   0.277E-01    0.383E-02
RMM:   3    -0.257495797431E+03   -0.43095E-04   -0.10835E-03  3450   0.742E-02    0.217E-02
RMM:   4    -0.257495791133E+03    0.62980E-05   -0.21337E-04  2817   0.300E-02
   9 F= -.25749579E+03 E0= -.25750609E+03  d E =0.411861E-01
       N       E                     dE             d eps       ncg     rms          rms(c)
DAV:   1    -0.257495761853E+03    0.35578E-04   -0.10971E+00  4800   0.184E+00    0.171E-01
RMM:   2    -0.257496856831E+03   -0.10950E-02   -0.14463E-02  4361   0.194E-01    0.112E-01
RMM:   3    -0.257496811449E+03    0.45382E-04   -0.66491E-04  3157   0.574E-02
  10 F= -.25749681E+03 E0= -.25750711E+03  d E =0.411910E-01
       N       E                     dE             d eps       ncg     rms          rms(c)
DAV:   1    -0.257494527241E+03    0.23296E-02   -0.22330E+00  4800   0.263E+00    0.240E-01
RMM:   2    -0.257496377069E+03   -0.18498E-02   -0.31734E-02  4598   0.290E-01    0.497E-02
RMM:   3    -0.257496516878E+03   -0.13981E-03   -0.14903E-03  3556   0.823E-02    0.276E-02
RMM:   4    -0.257496525897E+03   -0.90194E-05   -0.33936E-04  3023   0.354E-02
  11 F= -.25749653E+03 E0= -.25750684E+03  d E =0.412502E-01
       N       E                     dE             d eps       ncg     rms          rms(c)
DAV:   1    -0.257496487723E+03    0.29155E-04   -0.10900E+00  4800   0.187E+00    0.174E-01
RMM:   2    -0.257497688232E+03   -0.12005E-02   -0.15782E-02  4504   0.208E-01    0.115E-01
RMM:   3    -0.257497646296E+03    0.41937E-04   -0.78995E-04  3281   0.610E-02
  12 F= -.25749765E+03 E0= -.25750793E+03  d E =0.411426E-01
       N       E                     dE             d eps       ncg     rms          rms(c)
DAV:   1    -0.257494859123E+03    0.28291E-02   -0.22052E+00  4800   0.272E+00    0.243E-01
RMM:   2    -0.257496873381E+03   -0.20143E-02   -0.32662E-02  4695   0.300E-01    0.468E-02
RMM:   3    -0.257496973284E+03   -0.99904E-04   -0.16466E-03  3840   0.914E-02    0.359E-02
RMM:   4    -0.257496955926E+03    0.17358E-04   -0.29730E-04  2944   0.340E-02
  13 F= -.25749696E+03 E0= -.25750725E+03  d E =0.411725E-01
       N       E                     dE             d eps       ncg     rms          rms(c)
DAV:   1    -0.257495734119E+03    0.12392E-02   -0.11329E+00  4816   0.197E+00    0.179E-01
RMM:   2    -0.257497151936E+03   -0.14178E-02   -0.20012E-02  4665   0.232E-01    0.125E-01
RMM:   3    -0.257497113903E+03    0.38033E-04   -0.10409E-03  3374   0.726E-02    0.102E-01
RMM:   4    -0.257496919516E+03    0.19439E-03   -0.12031E-03  3635   0.571E-02    0.306E-02
RMM:   5    -0.257496917798E+03    0.17175E-05   -0.11799E-04  2640   0.333E-02
  14 F= -.25749692E+03 E0= -.25750721E+03  d E =0.411624E-01
       N       E                     dE             d eps       ncg     rms          rms(c)
DAV:   1    -0.257495247787E+03    0.16717E-02   -0.21908E+00  4808   0.270E+00    0.258E-01
RMM:   2    -0.257496392450E+03   -0.11447E-02   -0.28882E-02  4722   0.291E-01    0.321E-02
RMM:   3    -0.257496512539E+03   -0.12009E-03   -0.13978E-03  3650   0.953E-02    0.198E-02
RMM:   4    -0.257496543770E+03   -0.31231E-04   -0.34952E-04  2958   0.324E-02
  15 F= -.25749654E+03 E0= -.25750685E+03  d E =0.412254E-01
       N       E                     dE             d eps       ncg     rms          rms(c)
DAV:   1    -0.257495771376E+03    0.74116E-03   -0.11106E+00  4800   0.193E+00    0.193E-01
RMM:   2    -0.257496445369E+03   -0.67399E-03   -0.12900E-02  4597   0.193E-01    0.123E-01
RMM:   3    -0.257496283074E+03    0.16230E-03   -0.80930E-04  3255   0.608E-02    0.683E-02
RMM:   4    -0.257496206460E+03    0.76614E-04   -0.44862E-04  3081   0.424E-02
  16 F= -.25749621E+03 E0= -.25750651E+03  d E =0.411990E-01
       N       E                     dE             d eps       ncg     rms          rms(c)
DAV:   1    -0.257495193830E+03    0.10892E-02   -0.22009E+00  4800   0.273E+00    0.257E-01
RMM:   2    -0.257496314090E+03   -0.11203E-02   -0.27077E-02  4722   0.285E-01    0.503E-02
RMM:   3    -0.257496378947E+03   -0.64857E-04   -0.12097E-03  3605   0.872E-02    0.242E-02
RMM:   4    -0.257496393683E+03   -0.14735E-04   -0.30423E-04  2939   0.322E-02
  17 F= -.25749639E+03 E0= -.25750668E+03  d E =0.411647E-01
       N       E                     dE             d eps       ncg     rms          rms(c)
DAV:   1    -0.257496340231E+03    0.38716E-04   -0.10820E+00  4800   0.197E+00    0.177E-01
RMM:   2    -0.257497237958E+03   -0.89773E-03   -0.15122E-02  4638   0.215E-01    0.112E-01
RMM:   3    -0.257497112629E+03    0.12533E-03   -0.10042E-03  3417   0.766E-02    0.679E-02
RMM:   4    -0.257497080285E+03    0.32344E-04   -0.71519E-04  3313   0.472E-02
  18 F= -.25749708E+03 E0= -.25750739E+03  d E =0.412300E-01
       N       E                     dE             d eps       ncg     rms          rms(c)
DAV:   1    -0.257496408011E+03    0.70462E-03   -0.21478E+00  4800   0.275E+00    0.253E-01
RMM:   2    -0.257497733453E+03   -0.13254E-02   -0.30554E-02  4736   0.296E-01    0.365E-02
RMM:   3    -0.257497860015E+03   -0.12656E-03   -0.16909E-03  3827   0.110E-01    0.226E-02
RMM:   4    -0.257497881531E+03   -0.21517E-04   -0.39767E-04  3076   0.359E-02
  19 F= -.25749788E+03 E0= -.25750816E+03  d E =0.411233E-01
       N       E                     dE             d eps       ncg     rms          rms(c)
DAV:   1    -0.257495275374E+03    0.25846E-02   -0.10972E+00  4800   0.198E+00    0.164E-01
RMM:   2    -0.257496940010E+03   -0.16646E-02   -0.21935E-02  4695   0.250E-01    0.997E-02
RMM:   3    -0.257497023195E+03   -0.83184E-04   -0.13651E-03  3510   0.958E-02    0.900E-02
RMM:   4    -0.257496963833E+03    0.59361E-04   -0.94100E-04  3511   0.549E-02
  20 F= -.25749696E+03 E0= -.25750727E+03  d E =0.412293E-01
       N       E                     dE             d eps       ncg     rms          rms(c)
DAV:   1    -0.257494656682E+03    0.23665E-02   -0.21186E+00  4800   0.265E+00    0.215E-01
RMM:   2    -0.257497309688E+03   -0.26530E-02   -0.34412E-02  4766   0.325E-01    0.355E-02
RMM:   3    -0.257497558441E+03   -0.24875E-03   -0.23196E-03  3906   0.124E-01    0.272E-02
RMM:   4    -0.257497615495E+03   -0.57054E-04   -0.56464E-04  3133   0.373E-02
  21 F= -.25749762E+03 E0= -.25750791E+03  d E =0.411962E-01
       N       E                     dE             d eps       ncg     rms          rms(c)
DAV:   1    -0.257495526934E+03    0.20315E-02   -0.10582E+00  4800   0.190E+00    0.155E-01
RMM:   2    -0.257496954846E+03   -0.14279E-02   -0.16935E-02  4654   0.226E-01    0.996E-02
RMM:   3    -0.257496998962E+03   -0.44116E-04   -0.11095E-03  3447   0.851E-02    0.774E-02
RMM:   4    -0.257496940881E+03    0.58081E-04   -0.88159E-04  3373   0.508E-02
  22 F= -.25749694E+03 E0= -.25750724E+03  d E =0.411969E-01
       N       E                     dE             d eps       ncg     rms          rms(c)
DAV:   1    -0.257495258468E+03    0.17405E-02   -0.21289E+00  4800   0.269E+00    0.222E-01
RMM:   2    -0.257497588484E+03   -0.23300E-02   -0.31445E-02  4773   0.331E-01    0.365E-02
RMM:   3    -0.257497784491E+03   -0.19601E-03   -0.20739E-03  3965   0.114E-01    0.272E-02
RMM:   4    -0.257497821142E+03   -0.36651E-04   -0.51111E-04  3117   0.394E-02
  23 F= -.25749782E+03 E0= -.25750812E+03  d E =0.412010E-01
       N       E                     dE             d eps       ncg     rms          rms(c)
DAV:   1    -0.257498781327E+03   -0.99684E-03   -0.10109E+00  4800   0.189E+00    0.187E-01
RMM:   2    -0.257499643087E+03   -0.86176E-03   -0.15310E-02  4836   0.244E-01    0.113E-01
RMM:   3    -0.257499739908E+03   -0.96820E-04   -0.16501E-03  3938   0.920E-02    0.751E-02
RMM:   4    -0.257499564489E+03    0.17542E-03   -0.68727E-04  3402   0.557E-02    0.289E-02
RMM:   5    -0.257499552875E+03    0.11614E-04   -0.10765E-04  2636   0.283E-02
  24 F= -.25749955E+03 E0= -.25750987E+03  d E =0.412868E-01
       N       E                     dE             d eps       ncg     rms          rms(c)
DAV:   1    -0.257498191955E+03    0.13725E-02   -0.19435E+00  4800   0.262E+00    0.291E-01
RMM:   2    -0.257498660938E+03   -0.46898E-03   -0.26629E-02  4898   0.353E-01    0.327E-02
RMM:   3    -0.257498851203E+03   -0.19027E-03   -0.21440E-03  4421   0.110E-01    0.254E-02
RMM:   4    -0.257498870233E+03   -0.19030E-04   -0.26165E-04  2939   0.295E-02
  25 F= -.25749887E+03 E0= -.25750913E+03  d E =0.410543E-01
       N       E                     dE             d eps       ncg     rms          rms(c)
DAV:   1    -0.257495017632E+03    0.38336E-02   -0.10495E+00  4800   0.195E+00    0.192E-01
RMM:   2    -0.257496125224E+03   -0.11076E-02   -0.18315E-02  4752   0.244E-01    0.124E-01
RMM:   3    -0.257496170793E+03   -0.45569E-04   -0.96145E-04  3476   0.807E-02
  26 F= -.25749617E+03 E0= -.25750646E+03  d E =0.411695E-01
       N       E                     dE             d eps       ncg     rms          rms(c)
DAV:   1    -0.257494516629E+03    0.16086E-02   -0.22604E+00  4800   0.271E+00    0.246E-01
RMM:   2    -0.257496041813E+03   -0.15252E-02   -0.26807E-02  4743   0.287E-01    0.841E-02
RMM:   3    -0.257495956644E+03    0.85169E-04   -0.13584E-03  3665   0.787E-02    0.445E-02
RMM:   4    -0.257495939694E+03    0.16950E-04   -0.25870E-04  2886   0.360E-02
  27 F= -.25749594E+03 E0= -.25750625E+03  d E =0.412316E-01
       N       E                     dE             d eps       ncg     rms          rms(c)
DAV:   1    -0.257495859666E+03    0.96978E-04   -0.10925E+00  4800   0.188E+00    0.184E-01
RMM:   2    -0.257496662643E+03   -0.80298E-03   -0.14077E-02  4614   0.202E-01    0.124E-01
RMM:   3    -0.257496720385E+03   -0.57742E-04   -0.75452E-04  3307   0.689E-02
  28 F= -.25749672E+03 E0= -.25750702E+03  d E =0.412171E-01
       N       E                     dE             d eps       ncg     rms          rms(c)
DAV:   1    -0.257495632269E+03    0.10304E-02   -0.21945E+00  4832   0.270E+00    0.237E-01
RMM:   2    -0.257497219278E+03   -0.15870E-02   -0.30741E-02  4806   0.322E-01    0.114E-01
RMM:   3    -0.257497164089E+03    0.55189E-04   -0.17871E-03  4115   0.994E-02    0.829E-02
RMM:   4    -0.257497124892E+03    0.39198E-04   -0.62842E-04  3291   0.460E-02
  29 F= -.25749712E+03 E0= -.25750740E+03  d E =0.410856E-01
       N       E                     dE             d eps       ncg     rms          rms(c)
DAV:   1    -0.257496675926E+03    0.48816E-03   -0.10885E+00  4840   0.190E+00    0.181E-01
RMM:   2    -0.257497727959E+03   -0.10520E-02   -0.14495E-02  4629   0.212E-01    0.119E-01
RMM:   3    -0.257497700725E+03    0.27234E-04   -0.76579E-04  3305   0.650E-02
  30 F= -.25749770E+03 E0= -.25750800E+03  d E =0.411902E-01
       N       E                     dE             d eps       ncg     rms          rms(c)
DAV:   1    -0.257496337005E+03    0.13910E-02   -0.21808E+00  4800   0.277E+00    0.253E-01
RMM:   2    -0.257497883737E+03   -0.15467E-02   -0.32760E-02  4818   0.323E-01    0.108E-01
RMM:   3    -0.257497901460E+03   -0.17723E-04   -0.20847E-03  4097   0.108E-01    0.628E-02
RMM:   4    -0.257497884311E+03    0.17150E-04   -0.49624E-04  3219   0.438E-02
  31 F= -.25749788E+03 E0= -.25750819E+03  d E =0.412114E-01
       N       E                     dE             d eps       ncg     rms          rms(c)
DAV:   1    -0.257495526300E+03    0.23752E-02   -0.11270E+00  4800   0.196E+00    0.177E-01
RMM:   2    -0.257496939199E+03   -0.14129E-02   -0.19575E-02  4612   0.228E-01    0.116E-01
RMM:   3    -0.257496953927E+03   -0.14729E-04   -0.96097E-04  3337   0.712E-02
  32 F= -.25749695E+03 E0= -.25750726E+03  d E =0.412245E-01
       N       E                     dE             d eps       ncg     rms          rms(c)
DAV:   1    -0.257494205155E+03    0.27340E-02   -0.22296E+00  4800   0.262E+00    0.231E-01
RMM:   2    -0.257496456217E+03   -0.22511E-02   -0.30617E-02  4675   0.291E-01    0.843E-02
RMM:   3    -0.257496379755E+03    0.76462E-04   -0.14493E-03  3621   0.834E-02    0.374E-02
RMM:   4    -0.257496381142E+03   -0.13869E-05   -0.33164E-04  2961   0.390E-02
  33 F= -.25749638E+03 E0= -.25750669E+03  d E =0.412208E-01
       N       E                     dE             d eps       ncg     rms          rms(c)
DAV:   1    -0.257495379147E+03    0.10006E-02   -0.11079E+00  4800   0.184E+00    0.180E-01
RMM:   2    -0.257496254727E+03   -0.87558E-03   -0.12979E-02  4298   0.187E-01    0.118E-01
RMM:   3    -0.257496132659E+03    0.12207E-03   -0.63551E-04  3197   0.543E-02    0.839E-02
RMM:   4    -0.257495996813E+03    0.13585E-03   -0.65143E-04  3305   0.545E-02    0.350E-02
RMM:   5    -0.257495991610E+03    0.52035E-05   -0.84753E-05  2579   0.293E-02
  34 F= -.25749599E+03 E0= -.25750629E+03  d E =0.412120E-01
       N       E                     dE             d eps       ncg     rms          rms(c)
DAV:   1    -0.257494451642E+03    0.15452E-02   -0.22144E+00  4800   0.260E+00    0.248E-01
RMM:   2    -0.257495986538E+03   -0.15349E-02   -0.28956E-02  4574   0.267E-01    0.383E-02
RMM:   3    -0.257496062874E+03   -0.76336E-04   -0.12895E-03  3449   0.734E-02    0.255E-02
RMM:   4    -0.257496090724E+03   -0.27849E-04   -0.25873E-04  2873   0.327E-02
  35 F= -.25749609E+03 E0= -.25750639E+03  d E =0.412072E-01
       N       E                     dE             d eps       ncg     rms          rms(c)
DAV:   1    -0.257496197421E+03   -0.13455E-03   -0.10928E+00  4808   0.190E+00    0.172E-01
RMM:   2    -0.257497434429E+03   -0.12370E-02   -0.16527E-02  4508   0.209E-01    0.114E-01
RMM:   3    -0.257497406052E+03    0.28377E-04   -0.10254E-03  3485   0.727E-02    0.912E-02
RMM:   4    -0.257497214745E+03    0.19131E-03   -0.85055E-04  3347   0.533E-02    0.328E-02
RMM:   5    -0.257497194840E+03    0.19905E-04   -0.19736E-04  2815   0.321E-02
  36 F= -.25749719E+03 E0= -.25750750E+03  d E =0.412322E-01
       N       E                     dE             d eps       ncg     rms          rms(c)
DAV:   1    -0.257495381390E+03    0.18334E-02   -0.21683E+00  4800   0.271E+00    0.244E-01
RMM:   2    -0.257497040298E+03   -0.16589E-02   -0.30388E-02  4656   0.288E-01    0.371E-02
RMM:   3    -0.257497139125E+03   -0.98827E-04   -0.15107E-03  3665   0.846E-02    0.236E-02
RMM:   4    -0.257497142380E+03   -0.32553E-05   -0.26534E-04  2892   0.321E-02
  37 F= -.25749714E+03 E0= -.25750743E+03  d E =0.411493E-01
       N       E                     dE             d eps       ncg     rms          rms(c)
DAV:   1    -0.257499220617E+03   -0.20815E-02   -0.62842E-01  4800   0.145E+00    0.164E-01
RMM:   2    -0.257499824322E+03   -0.60371E-03   -0.10569E-02  4404   0.169E-01    0.860E-02
RMM:   3    -0.257499841771E+03   -0.17449E-04   -0.99715E-04  3436   0.628E-02
  38 F= -.25749984E+03 E0= -.25751017E+03  d E =0.413254E-01
       N       E                     dE             d eps       ncg     rms          rms(c)
DAV:   1    -0.257500073758E+03   -0.24944E-03   -0.36420E-01  4832   0.900E-01    0.248E-01
RMM:   2    -0.257499365762E+03    0.70800E-03   -0.10361E-02  4506   0.160E-01    0.395E-02
RMM:   3    -0.257499416327E+03   -0.50565E-04   -0.46053E-04  3081   0.475E-02
  39 F= -.25749942E+03 E0= -.25750970E+03  d E =0.411232E-01
       N       E                     dE             d eps       ncg     rms          rms(c)
DAV:   1    -0.257501005713E+03   -0.16400E-02   -0.18027E-01  4872   0.633E-01    0.186E-01
RMM:   2    -0.257500643327E+03    0.36239E-03   -0.42355E-03  4044   0.109E-01    0.747E-02
RMM:   3    -0.257500620228E+03    0.23099E-04   -0.41852E-04  2989   0.455E-02
  40 F= -.25750062E+03 E0= -.25751094E+03  d E =0.412614E-01
       N       E                     dE             d eps       ncg     rms          rms(c)
DAV:   1    -0.257500993784E+03   -0.35046E-03   -0.34307E-01  4864   0.876E-01    0.189E-01
RMM:   2    -0.257501025726E+03   -0.31942E-04   -0.45219E-03  4017   0.108E-01    0.376E-02
RMM:   3    -0.257501015943E+03    0.97826E-05   -0.27500E-04  2878   0.385E-02
  41 F= -.25750102E+03 E0= -.25751132E+03  d E =0.412330E-01
       N       E                     dE             d eps       ncg     rms          rms(c)
DAV:   1    -0.257500793733E+03    0.23199E-03   -0.17430E-01  4904   0.623E-01    0.161E-01
RMM:   2    -0.257500618155E+03    0.17558E-03   -0.33301E-03  3834   0.885E-02    0.664E-02
RMM:   3    -0.257500583572E+03    0.34583E-04   -0.28984E-04  2914   0.375E-02
  42 F= -.25750058E+03 E0= -.25751089E+03  d E =0.412134E-01
       N       E                     dE             d eps       ncg     rms          rms(c)
DAV:   1    -0.257500455605E+03    0.16255E-03   -0.34742E-01  4872   0.876E-01    0.210E-01
RMM:   2    -0.257500306285E+03    0.14932E-03   -0.53812E-03  4052   0.111E-01    0.253E-02
RMM:   3    -0.257500299948E+03    0.63364E-05   -0.33607E-04  2945   0.419E-02
  43 F= -.25750030E+03 E0= -.25751060E+03  d E =0.412075E-01
       N       E                     dE             d eps       ncg     rms          rms(c)
DAV:   1    -0.257499338154E+03    0.96813E-03   -0.17102E-01  4944   0.668E-01    0.153E-01
RMM:   2    -0.257499594962E+03   -0.25681E-03   -0.34778E-03  3764   0.930E-02    0.888E-02
RMM:   3    -0.257499477906E+03    0.11706E-03   -0.52482E-04  3105   0.541E-02    0.573E-02
RMM:   4    -0.257499403395E+03    0.74511E-04   -0.25707E-04  2880   0.367E-02
  44 F= -.25749940E+03 E0= -.25750970E+03  d E =0.412010E-01
       N       E                     dE             d eps       ncg     rms          rms(c)
DAV:   1    -0.257500026903E+03   -0.54900E-03   -0.35332E-01  4888   0.872E-01    0.244E-01
RMM:   2    -0.257499551212E+03    0.47569E-03   -0.88169E-03  4157   0.135E-01    0.252E-02
RMM:   3    -0.257499551519E+03   -0.30638E-06   -0.43914E-04  3055   0.461E-02
  45 F= -.25749955E+03 E0= -.25750984E+03  d E =0.411698E-01
       N       E                     dE             d eps       ncg     rms          rms(c)
DAV:   1    -0.257499930763E+03   -0.37955E-03   -0.16477E-01  4856   0.599E-01    0.114E-01
RMM:   2    -0.257500023243E+03   -0.92480E-04   -0.17405E-03  3644   0.694E-02    0.722E-02
RMM:   3    -0.257500037682E+03   -0.14439E-04   -0.35223E-04  2971   0.397E-02
  46 F= -.25750004E+03 E0= -.25751034E+03  d E =0.412014E-01
       N       E                     dE             d eps       ncg     rms          rms(c)
DAV:   1    -0.257500591414E+03   -0.56817E-03   -0.34977E-01  4832   0.874E-01    0.220E-01
RMM:   2    -0.257500303941E+03    0.28747E-03   -0.62856E-03  4031   0.117E-01    0.237E-02
RMM:   3    -0.257500335106E+03   -0.31165E-04   -0.35121E-04  2965   0.408E-02
  47 F= -.25750034E+03 E0= -.25751063E+03  d E =0.411729E-01
       N       E                     dE             d eps       ncg     rms          rms(c)
DAV:   1    -0.257501494706E+03   -0.11908E-02   -0.17223E-01  4928   0.612E-01    0.145E-01
RMM:   2    -0.257501372697E+03    0.12201E-03   -0.25108E-03  3688   0.789E-02    0.623E-02
RMM:   3    -0.257501391358E+03   -0.18662E-04   -0.32979E-04  2939   0.348E-02
  48 F= -.25750139E+03 E0= -.25751170E+03  d E =0.412203E-01
       N       E                     dE             d eps       ncg     rms          rms(c)
DAV:   1    -0.257500694840E+03    0.67786E-03   -0.33308E-01  4952   0.849E-01    0.164E-01
RMM:   2    -0.257500982657E+03   -0.28782E-03   -0.31209E-03  3880   0.930E-02    0.306E-02
RMM:   3    -0.257500982075E+03    0.58168E-06   -0.16380E-04  2764   0.303E-02
  49 F= -.25750098E+03 E0= -.25751128E+03  d E =0.411919E-01
       N       E                     dE             d eps       ncg     rms          rms(c)
DAV:   1    -0.257500617302E+03    0.36535E-03   -0.16568E-01  4944   0.647E-01    0.116E-01
RMM:   2    -0.257500728338E+03   -0.11104E-03   -0.17636E-03  3595   0.700E-02    0.632E-02
RMM:   3    -0.257500740645E+03   -0.12307E-04   -0.23465E-04  2872   0.340E-02
  50 F= -.25750074E+03 E0= -.25751105E+03  d E =0.412393E-01
       N       E                     dE             d eps       ncg     rms          rms(c)
DAV:   1    -0.257501243691E+03   -0.51535E-03   -0.33125E-01  4840   0.895E-01    0.168E-01
RMM:   2    -0.257501402033E+03   -0.15834E-03   -0.33196E-03  4018   0.101E-01    0.233E-02
RMM:   3    -0.257501439684E+03   -0.37652E-04   -0.17332E-04  2760   0.357E-02
  51 F= -.25750144E+03 E0= -.25751175E+03  d E =0.412424E-01
       N       E                     dE             d eps       ncg     rms          rms(c)
DAV:   1    -0.257499198660E+03    0.22034E-02   -0.17554E-01  4944   0.654E-01    0.178E-01
RMM:   2    -0.257499002891E+03    0.19577E-03   -0.36256E-03  4048   0.104E-01    0.952E-02
RMM:   3    -0.257498893911E+03    0.10898E-03   -0.65211E-04  3205   0.465E-02    0.564E-02
RMM:   4    -0.257498854835E+03    0.39076E-04   -0.20879E-04  2818   0.340E-02
  52 F= -.25749885E+03 E0= -.25750915E+03  d E =0.411751E-01
       N       E                     dE             d eps       ncg     rms          rms(c)
DAV:   1    -0.257499921639E+03   -0.10277E-02   -0.36619E-01  4864   0.954E-01    0.274E-01
RMM:   2    -0.257498938612E+03    0.98303E-03   -0.12002E-02  4566   0.172E-01    0.326E-02
RMM:   3    -0.257499001729E+03   -0.63117E-04   -0.66236E-04  3226   0.593E-02
  53 F= -.25749900E+03 E0= -.25750930E+03  d E =0.412045E-01
       N       E                     dE             d eps       ncg     rms          rms(c)
DAV:   1    -0.257501192641E+03   -0.22540E-02   -0.16906E-01  4856   0.640E-01    0.138E-01
RMM:   2    -0.257501141893E+03    0.50748E-04   -0.21985E-03  3783   0.808E-02    0.621E-02
RMM:   3    -0.257501151800E+03   -0.99064E-05   -0.26267E-04  2897   0.357E-02
  54 F= -.25750115E+03 E0= -.25751145E+03  d E =0.411995E-01
       N       E                     dE             d eps       ncg     rms          rms(c)
DAV:   1    -0.257500681812E+03    0.46008E-03   -0.32830E-01  4800   0.899E-01    0.177E-01
RMM:   2    -0.257500789574E+03   -0.10776E-03   -0.37563E-03  4104   0.105E-01    0.254E-02
RMM:   3    -0.257500792899E+03   -0.33248E-05   -0.20016E-04  2777   0.382E-02
  55 F= -.25750079E+03 E0= -.25751109E+03  d E =0.411744E-01
       N       E                     dE             d eps       ncg     rms          rms(c)
DAV:   1    -0.257499888085E+03    0.90149E-03   -0.17047E-01  4936   0.679E-01    0.149E-01
RMM:   2    -0.257499920462E+03   -0.32378E-04   -0.30211E-03  3942   0.971E-02    0.895E-02
RMM:   3    -0.257499944487E+03   -0.24024E-04   -0.64347E-04  3259   0.520E-02
  56 F= -.25749994E+03 E0= -.25751026E+03  d E =0.412468E-01
       N       E                     dE             d eps       ncg     rms          rms(c)
DAV:   1    -0.257500218860E+03   -0.29840E-03   -0.35513E-01  4992   0.866E-01    0.249E-01
RMM:   2    -0.257499323435E+03    0.89543E-03   -0.10131E-02  4571   0.154E-01    0.379E-02
RMM:   3    -0.257499384298E+03   -0.60864E-04   -0.44376E-04  3063   0.524E-02
  57 F= -.25749938E+03 E0= -.25750967E+03  d E =0.411479E-01
       N       E                     dE             d eps       ncg     rms          rms(c)
DAV:   1    -0.257501546590E+03   -0.22232E-02   -0.17847E-01  4904   0.625E-01    0.182E-01
RMM:   2    -0.257501147163E+03    0.39943E-03   -0.42395E-03  4113   0.107E-01    0.699E-02
RMM:   3    -0.257501134978E+03    0.12185E-04   -0.45882E-04  3068   0.427E-02
  58 F= -.25750113E+03 E0= -.25751143E+03  d E =0.411792E-01
       N       E                     dE             d eps       ncg     rms          rms(c)
DAV:   1    -0.257500472841E+03    0.67432E-03   -0.33590E-01  4800   0.845E-01    0.189E-01
RMM:   2    -0.257500404326E+03    0.68515E-04   -0.51372E-03  4235   0.114E-01    0.232E-02
RMM:   3    -0.257500426841E+03   -0.22516E-04   -0.24262E-04  2814   0.392E-02
  59 F= -.25750043E+03 E0= -.25751073E+03  d E =0.412205E-01
       N       E                     dE             d eps       ncg     rms          rms(c)
DAV:   1    -0.257501084465E+03   -0.68014E-03   -0.17096E-01  4896   0.611E-01    0.160E-01
RMM:   2    -0.257500873225E+03    0.21124E-03   -0.30179E-03  3911   0.889E-02    0.688E-02
RMM:   3    -0.257500860990E+03    0.12235E-04   -0.35084E-04  2943   0.404E-02
  60 F= -.25750086E+03 E0= -.25751118E+03  d E =0.412669E-01
       N       E                     dE             d eps       ncg     rms          rms(c)
DAV:   1    -0.257500368340E+03    0.50489E-03   -0.33448E-01  4848   0.836E-01    0.195E-01
RMM:   2    -0.257500237537E+03    0.13080E-03   -0.50645E-03  4177   0.114E-01    0.241E-02
RMM:   3    -0.257500252361E+03   -0.14824E-04   -0.25213E-04  2834   0.421E-02
  61 F= -.25750025E+03 E0= -.25751054E+03  d E =0.411398E-01
       N       E                     dE             d eps       ncg     rms          rms(c)
DAV:   1    -0.257499150030E+03    0.10875E-02   -0.16807E-01  4888   0.674E-01    0.147E-01
RMM:   2    -0.257499293250E+03   -0.14322E-03   -0.32053E-03  3887   0.961E-02    0.830E-02
RMM:   3    -0.257499270702E+03    0.22548E-04   -0.33349E-04  2939   0.411E-02
  62 F= -.25749927E+03 E0= -.25750958E+03  d E =0.412419E-01
       N       E                     dE             d eps       ncg     rms          rms(c)
DAV:   1    -0.257500068745E+03   -0.77549E-03   -0.36103E-01  4816   0.933E-01    0.239E-01
RMM:   2    -0.257499706571E+03    0.36217E-03   -0.84879E-03  4336   0.147E-01    0.547E-02
RMM:   3    -0.257499689252E+03    0.17319E-04   -0.41648E-04  3001   0.505E-02
  63 F= -.25749969E+03 E0= -.25750998E+03  d E =0.411791E-01
       N       E                     dE             d eps       ncg     rms          rms(c)
DAV:   1    -0.257500079859E+03   -0.37329E-03   -0.16719E-01  4800   0.629E-01    0.119E-01
RMM:   2    -0.257500246384E+03   -0.16653E-03   -0.16226E-03  3536   0.675E-02    0.707E-02
RMM:   3    -0.257500224868E+03    0.21516E-04   -0.20801E-04  2829   0.366E-02
  64 F= -.25750022E+03 E0= -.25751053E+03  d E =0.412082E-01
       N       E                     dE             d eps       ncg     rms          rms(c)
DAV:   1    -0.257500473521E+03   -0.22714E-03   -0.34522E-01  4832   0.908E-01    0.213E-01
RMM:   2    -0.257500229686E+03    0.24384E-03   -0.59998E-03  4169   0.123E-01    0.288E-02
RMM:   3    -0.257500247845E+03   -0.18159E-04   -0.30968E-04  2906   0.422E-02
  65 F= -.25750025E+03 E0= -.25751055E+03  d E =0.412264E-01
       N       E                     dE             d eps       ncg     rms          rms(c)
DAV:   1    -0.257501081550E+03   -0.85186E-03   -0.17111E-01  4936   0.645E-01    0.141E-01
RMM:   2    -0.257501053513E+03    0.28037E-04   -0.24739E-03  3747   0.833E-02    0.610E-02
RMM:   3    -0.257501064951E+03   -0.11438E-04   -0.25548E-04  2863   0.345E-02
  66 F= -.25750106E+03 E0= -.25751137E+03  d E =0.412113E-01
       N       E                     dE             d eps       ncg     rms          rms(c)
DAV:   1    -0.257501039711E+03    0.13802E-04   -0.33089E-01  4800   0.890E-01    0.165E-01
RMM:   2    -0.257501241964E+03   -0.20225E-03   -0.32136E-03  3901   0.943E-02    0.263E-02
RMM:   3    -0.257501246549E+03   -0.45848E-05   -0.16136E-04  2727   0.339E-02
  67 F= -.25750125E+03 E0= -.25751155E+03  d E =0.411977E-01
       N       E                     dE             d eps       ncg     rms          rms(c)
DAV:   1    -0.257499568372E+03    0.16736E-02   -0.17127E-01  4888   0.679E-01    0.146E-01
RMM:   2    -0.257499592876E+03   -0.24504E-04   -0.30208E-03  3837   0.914E-02    0.851E-02
RMM:   3    -0.257499511283E+03    0.81593E-04   -0.60682E-04  3153   0.400E-02
  68 F= -.25749951E+03 E0= -.25750983E+03  d E =0.412568E-01
       N       E                     dE             d eps       ncg     rms          rms(c)
DAV:   1    -0.257499934835E+03   -0.34196E-03   -0.36555E-01  4944   0.898E-01    0.256E-01
RMM:   2    -0.257499306315E+03    0.62852E-03   -0.10319E-02  4407   0.150E-01    0.303E-02
RMM:   3    -0.257499304927E+03    0.13884E-05   -0.44718E-04  3087   0.465E-02
  69 F= -.25749930E+03 E0= -.25750960E+03  d E =0.411711E-01
       N       E                     dE             d eps       ncg     rms          rms(c)
DAV:   1    -0.257501333703E+03   -0.20274E-02   -0.18010E-01  4992   0.627E-01    0.178E-01
RMM:   2    -0.257500951913E+03    0.38179E-03   -0.40278E-03  3914   0.957E-02    0.638E-02
RMM:   3    -0.257500992409E+03   -0.40496E-04   -0.47571E-04  3111   0.416E-02
  70 F= -.25750099E+03 E0= -.25751130E+03  d E =0.412170E-01
       N       E                     dE             d eps       ncg     rms          rms(c)
DAV:   1    -0.257500884320E+03    0.67593E-04   -0.33807E-01  4912   0.860E-01    0.176E-01
RMM:   2    -0.257500993982E+03   -0.10966E-03   -0.38278E-03  3852   0.949E-02    0.287E-02
RMM:   3    -0.257501006044E+03   -0.12062E-04   -0.17927E-04  2786   0.323E-02
  71 F= -.25750101E+03 E0= -.25751130E+03  d E =0.411931E-01
       N       E                     dE             d eps       ncg     rms          rms(c)
DAV:   1    -0.257500470612E+03    0.52337E-03   -0.17318E-01  4872   0.612E-01    0.152E-01
RMM:   2    -0.257500344310E+03    0.12630E-03   -0.26245E-03  3627   0.770E-02    0.643E-02
RMM:   3    -0.257500332214E+03    0.12096E-04   -0.32345E-04  2938   0.366E-02
  72 F= -.25750033E+03 E0= -.25751064E+03  d E =0.412203E-01
       N       E                     dE             d eps       ncg     rms          rms(c)
DAV:   1    -0.257500627479E+03   -0.28317E-03   -0.34802E-01  4872   0.871E-01    0.214E-01
RMM:   2    -0.257500427443E+03    0.20004E-03   -0.55563E-03  4005   0.113E-01    0.199E-02
RMM:   3    -0.257500430161E+03   -0.27182E-05   -0.28298E-04  2890   0.403E-02
  73 F= -.25750043E+03 E0= -.25751073E+03  d E =0.411799E-01
       N       E                     dE             d eps       ncg     rms          rms(c)
DAV:   1    -0.257501046911E+03   -0.61947E-03   -0.16697E-01  4904   0.655E-01    0.132E-01
RMM:   2    -0.257501162565E+03   -0.11565E-03   -0.21850E-03  3561   0.725E-02    0.592E-02
RMM:   3    -0.257501151155E+03    0.11410E-04   -0.20695E-04  2835   0.327E-02
  74 F= -.25750115E+03 E0= -.25751147E+03  d E =0.412828E-01
       N       E                     dE             d eps       ncg     rms          rms(c)
DAV:   1    -0.257500737710E+03    0.42485E-03   -0.33304E-01  4800   0.839E-01    0.172E-01
RMM:   2    -0.257500953521E+03   -0.21581E-03   -0.32820E-03  3711   0.884E-02    0.238E-02
RMM:   3    -0.257500952777E+03    0.74452E-06   -0.16415E-04  2745   0.293E-02
  75 F= -.25750095E+03 E0= -.25751125E+03  d E =0.411883E-01
       N       E                     dE             d eps       ncg     rms          rms(c)
DAV:   1    -0.257498836891E+03    0.21166E-02   -0.18066E-01  4936   0.620E-01    0.184E-01
RMM:   2    -0.257498683658E+03    0.15323E-03   -0.41744E-03  3894   0.100E-01    0.913E-02
RMM:   3    -0.257498622676E+03    0.60982E-04   -0.60371E-04  3189   0.438E-02
  76 F= -.25749862E+03 E0= -.25750893E+03  d E =0.412334E-01
       N       E                     dE             d eps       ncg     rms          rms(c)
DAV:   1    -0.257499819031E+03   -0.11354E-02   -0.36824E-01  4888   0.887E-01    0.273E-01
RMM:   2    -0.257498867900E+03    0.95113E-03   -0.12526E-02  4397   0.166E-01    0.326E-02
RMM:   3    -0.257498951010E+03   -0.83110E-04   -0.71510E-04  3315   0.543E-02
  77 F= -.25749895E+03 E0= -.25750924E+03  d E =0.411735E-01
       N       E                     dE             d eps       ncg     rms          rms(c)
DAV:   1    -0.257501035954E+03   -0.21681E-02   -0.16921E-01  4888   0.606E-01    0.138E-01
RMM:   2    -0.257500996544E+03    0.39410E-04   -0.22312E-03  3589   0.731E-02    0.581E-02
RMM:   3    -0.257500977095E+03    0.19449E-04   -0.15670E-04  2753   0.298E-02
  78 F= -.25750098E+03 E0= -.25751127E+03  d E =0.411585E-01
       N       E                     dE             d eps       ncg     rms          rms(c)
DAV:   1    -0.257500835632E+03    0.16091E-03   -0.33736E-01  4904   0.847E-01    0.177E-01
RMM:   2    -0.257501041081E+03   -0.20545E-03   -0.34069E-03  3838   0.919E-02    0.224E-02
RMM:   3    -0.257501026825E+03    0.14257E-04   -0.18235E-04  2774   0.310E-02
  79 F= -.25750103E+03 E0= -.25751133E+03  d E =0.412023E-01
       N       E                     dE             d eps       ncg     rms          rms(c)
DAV:   1    -0.257499723756E+03    0.13173E-02   -0.17307E-01  4936   0.692E-01    0.155E-01
RMM:   2    -0.257499727509E+03   -0.37534E-05   -0.31077E-03  3971   0.964E-02    0.904E-02
RMM:   3    -0.257499616368E+03    0.11114E-03   -0.63146E-04  3155   0.413E-02    0.483E-02
RMM:   4    -0.257499623016E+03   -0.66476E-05   -0.19148E-04  2818   0.352E-02
  80 F= -.25749962E+03 E0= -.25750992E+03  d E =0.411948E-01
       N       E                     dE             d eps       ncg     rms          rms(c)
DAV:   1    -0.257499981530E+03   -0.36516E-03   -0.35549E-01  4912   0.897E-01    0.258E-01
RMM:   2    -0.257499102250E+03    0.87928E-03   -0.98560E-03  4509   0.157E-01    0.243E-02
RMM:   3    -0.257499153131E+03   -0.50881E-04   -0.52247E-04  3093   0.565E-02
  81 F= -.25749915E+03 E0= -.25750945E+03  d E =0.411899E-01
       N       E                     dE             d eps       ncg     rms          rms(c)
DAV:   1    -0.257501399463E+03   -0.22972E-02   -0.17724E-01  4928   0.635E-01    0.182E-01
RMM:   2    -0.257500960691E+03    0.43877E-03   -0.42070E-03  4180   0.104E-01    0.640E-02
RMM:   3    -0.257500973323E+03   -0.12632E-04   -0.32856E-04  2940   0.422E-02
  82 F= -.25750097E+03 E0= -.25751129E+03  d E =0.412528E-01
       N       E                     dE             d eps       ncg     rms          rms(c)
DAV:   1    -0.257500937261E+03    0.23430E-04   -0.33302E-01  4848   0.859E-01    0.177E-01
RMM:   2    -0.257500939334E+03   -0.20723E-05   -0.41352E-03  4155   0.104E-01    0.196E-02
RMM:   3    -0.257500977783E+03   -0.38450E-04   -0.18048E-04  2774   0.359E-02
  83 F= -.25750098E+03 E0= -.25751127E+03  d E =0.411645E-01
       N       E                     dE             d eps       ncg     rms          rms(c)
DAV:   1    -0.257501065623E+03   -0.12629E-03   -0.16866E-01  4904   0.617E-01    0.148E-01
RMM:   2    -0.257500961782E+03    0.10384E-03   -0.28927E-03  4009   0.870E-02    0.604E-02
RMM:   3    -0.257500975118E+03   -0.13335E-04   -0.27770E-04  2886   0.369E-02
  84 F= -.25750098E+03 E0= -.25751129E+03  d E =0.412547E-01
       N       E                     dE             d eps       ncg     rms          rms(c)
DAV:   1    -0.257500344915E+03    0.61687E-03   -0.33099E-01  4816   0.862E-01    0.193E-01
RMM:   2    -0.257500202107E+03    0.14281E-03   -0.47931E-03  4213   0.113E-01    0.227E-02
RMM:   3    -0.257500227658E+03   -0.25551E-04   -0.26965E-04  2850   0.419E-02
  85 F= -.25750023E+03 E0= -.25751052E+03  d E =0.411534E-01
       N       E                     dE             d eps       ncg     rms          rms(c)
DAV:   1    -0.257499215792E+03    0.98631E-03   -0.17290E-01  4984   0.641E-01    0.157E-01
RMM:   2    -0.257499218511E+03   -0.27186E-05   -0.36275E-03  3853   0.957E-02    0.925E-02
RMM:   3    -0.257499124809E+03    0.93702E-04   -0.75913E-04  3238   0.454E-02
  86 F= -.25749912E+03 E0= -.25750942E+03  d E =0.411900E-01
       N       E                     dE             d eps       ncg     rms          rms(c)
DAV:   1    -0.257500133879E+03   -0.91537E-03   -0.35804E-01  4808   0.786E-01    0.244E-01
RMM:   2    -0.257499628652E+03    0.50523E-03   -0.93146E-03  4055   0.136E-01    0.355E-02
RMM:   3    -0.257499620330E+03    0.83211E-05   -0.50920E-04  3107   0.479E-02
  87 F= -.25749962E+03 E0= -.25750992E+03  d E =0.412034E-01
       N       E                     dE             d eps       ncg     rms          rms(c)
DAV:   1    -0.257500932572E+03   -0.13039E-02   -0.17958E-01  4904   0.560E-01    0.176E-01
RMM:   2    -0.257500634657E+03    0.29791E-03   -0.43433E-03  3724   0.927E-02    0.652E-02
RMM:   3    -0.257500628355E+03    0.63029E-05   -0.40897E-04  3035   0.390E-02
  88 F= -.25750063E+03 E0= -.25751093E+03  d E =0.411971E-01
       N       E                     dE             d eps       ncg     rms          rms(c)
DAV:   1    -0.257501025564E+03   -0.39091E-03   -0.33630E-01  4808   0.762E-01    0.178E-01
RMM:   2    -0.257501116734E+03   -0.91170E-04   -0.35823E-03  3653   0.885E-02    0.256E-02
RMM:   3    -0.257501107921E+03    0.88127E-05   -0.21429E-04  2798   0.325E-02
  89 F= -.25750111E+03 E0= -.25751141E+03  d E =0.412137E-01
       N       E                     dE             d eps       ncg     rms          rms(c)
DAV:   1    -0.257500777542E+03    0.33919E-03   -0.17399E-01  4864   0.546E-01    0.152E-01
RMM:   2    -0.257500664055E+03    0.11349E-03   -0.24125E-03  3491   0.723E-02    0.722E-02
RMM:   3    -0.257500637820E+03    0.26235E-04   -0.41059E-04  2977   0.355E-02
  90 F= -.25750064E+03 E0= -.25751094E+03  d E =0.412017E-01
       N       E                     dE             d eps       ncg     rms          rms(c)
DAV:   1    -0.257500600496E+03    0.63560E-04   -0.34285E-01  4824   0.760E-01    0.197E-01
RMM:   2    -0.257500530924E+03    0.69572E-04   -0.49567E-03  3762   0.977E-02    0.194E-02
RMM:   3    -0.257500533734E+03   -0.28103E-05   -0.23180E-04  2803   0.343E-02
  91 F= -.25750053E+03 E0= -.25751084E+03  d E =0.412093E-01
       N       E                     dE             d eps       ncg     rms          rms(c)
DAV:   1    -0.257501001142E+03   -0.47022E-03   -0.17216E-01  4832   0.614E-01    0.139E-01
RMM:   2    -0.257501046503E+03   -0.45362E-04   -0.18760E-03  3504   0.688E-02    0.642E-02
RMM:   3    -0.257501034487E+03    0.12016E-04   -0.36138E-04  2972   0.329E-02
  92 F= -.25750103E+03 E0= -.25751135E+03  d E =0.412513E-01
       N       E                     dE             d eps       ncg     rms          rms(c)
DAV:   1    -0.257501005912E+03    0.40591E-04   -0.33576E-01  4848   0.859E-01    0.172E-01
RMM:   2    -0.257501179586E+03   -0.17367E-03   -0.34682E-03  3871   0.901E-02    0.210E-02
RMM:   3    -0.257501183211E+03   -0.36254E-05   -0.16447E-04  2746   0.283E-02
  93 F= -.25750118E+03 E0= -.25751148E+03  d E =0.411834E-01
       N       E                     dE             d eps       ncg     rms          rms(c)
DAV:   1    -0.257500880285E+03    0.29930E-03   -0.16692E-01  4984   0.610E-01    0.119E-01
RMM:   2    -0.257501030736E+03   -0.15045E-03   -0.13630E-03  3457   0.585E-02    0.609E-02
RMM:   3    -0.257501000709E+03    0.30027E-04   -0.14632E-04  2715   0.261E-02
  94 F= -.25750100E+03 E0= -.25751130E+03  d E =0.412007E-01
       N       E                     dE             d eps       ncg     rms          rms(c)
DAV:   1    -0.257501130248E+03   -0.99512E-04   -0.33377E-01  4920   0.863E-01    0.164E-01
RMM:   2    -0.257501375941E+03   -0.24569E-03   -0.24961E-03  3698   0.813E-02    0.160E-02
RMM:   3    -0.257501378040E+03   -0.20993E-05   -0.12316E-04  2633   0.253E-02
  95 F= -.25750138E+03 E0= -.25751168E+03  d E =0.411969E-01
       N       E                     dE             d eps       ncg     rms          rms(c)
DAV:   1    -0.257499055325E+03    0.23206E-02   -0.17438E-01  4944   0.627E-01    0.163E-01
RMM:   2    -0.257499303444E+03   -0.24812E-03   -0.31534E-03  3782   0.898E-02    0.126E-01
RMM:   3    -0.257498907936E+03    0.39551E-03   -0.98553E-04  3309   0.448E-02    0.518E-02
RMM:   4    -0.257498860253E+03    0.47683E-04   -0.36509E-04  3005   0.325E-02
  96 F= -.25749886E+03 E0= -.25750916E+03  d E =0.412133E-01
       N       E                     dE             d eps       ncg     rms          rms(c)
DAV:   1    -0.257498819725E+03    0.88211E-04   -0.37389E-01  4968   0.918E-01    0.281E-01
RMM:   2    -0.257498045312E+03    0.77441E-03   -0.14115E-02  4185   0.169E-01    0.240E-02
RMM:   3    -0.257498079759E+03   -0.34446E-04   -0.76663E-04  3293   0.547E-02
  97 F= -.25749808E+03 E0= -.25750838E+03  d E =0.412113E-01
       N       E                     dE             d eps       ncg     rms          rms(c)
DAV:   1    -0.257496743174E+03    0.13021E-02   -0.64021E-01  4872   0.140E+00    0.187E-01
RMM:   2    -0.257497234706E+03   -0.49153E-03   -0.12155E-02  4516   0.177E-01    0.117E-01
RMM:   3    -0.257497088689E+03    0.14602E-03   -0.70330E-04  3186   0.570E-02    0.804E-02
RMM:   4    -0.257496946698E+03    0.14199E-03   -0.57826E-04  3148   0.431E-02    0.256E-02
RMM:   5    -0.257496940534E+03    0.61641E-05   -0.66209E-05  2570   0.251E-02
  98 F= -.25749694E+03 E0= -.25750725E+03  d E =0.412246E-01
       N       E                     dE             d eps       ncg     rms          rms(c)
DAV:   1    -0.257496002234E+03    0.94446E-03   -0.22018E+00  4800   0.258E+00    0.269E-01
RMM:   2    -0.257496646562E+03   -0.64433E-03   -0.28150E-02  4717   0.278E-01    0.284E-02
RMM:   3    -0.257496742280E+03   -0.95718E-04   -0.11448E-03  3441   0.848E-02    0.162E-02
RMM:   4    -0.257496766537E+03   -0.24257E-04   -0.25958E-04  2827   0.301E-02
  99 F= -.25749677E+03 E0= -.25750707E+03  d E =0.412054E-01
       N       E                     dE             d eps       ncg     rms          rms(c)
DAV:   1    -0.257495695114E+03    0.10472E-02   -0.10993E+00  4800   0.182E+00    0.190E-01
RMM:   2    -0.257496384814E+03   -0.68970E-03   -0.13719E-02  4607   0.195E-01    0.127E-01
RMM:   3    -0.257496267369E+03    0.11744E-03   -0.77373E-04  3253   0.628E-02    0.881E-02
RMM:   4    -0.257496072889E+03    0.19448E-03   -0.67187E-04  3201   0.457E-02    0.306E-02
RMM:   5    -0.257496059109E+03    0.13781E-04   -0.91254E-05  2634   0.265E-02
 100 F= -.25749606E+03 E0= -.25750636E+03  d E =0.412002E-01
       N       E                     dE             d eps       ncg     rms          rms(c)
DAV:   1    -0.257495621211E+03    0.45168E-03   -0.22363E+00  4800   0.255E+00    0.275E-01
RMM:   2    -0.257496140205E+03   -0.51899E-03   -0.25059E-02  4703   0.256E-01    0.347E-02
RMM:   3    -0.257496212349E+03   -0.72144E-04   -0.87988E-04  3234   0.688E-02
 101 F= -.25749621E+03 E0= -.25750651E+03  d E =0.411789E-01
       N       E                     dE             d eps       ncg     rms          rms(c)
DAV:   1    -0.257496717389E+03   -0.57718E-03   -0.11072E+00  4800   0.186E+00    0.202E-01
RMM:   2    -0.257497260731E+03   -0.54334E-03   -0.12308E-02  4593   0.197E-01    0.131E-01
RMM:   3    -0.257496945305E+03    0.31543E-03   -0.10269E-03  3523   0.639E-02    0.603E-02
RMM:   4    -0.257496892613E+03    0.52692E-04   -0.44385E-04  3022   0.404E-02
 102 F= -.25749689E+03 E0= -.25750718E+03  d E =0.411623E-01
       N       E                     dE             d eps       ncg     rms          rms(c)
DAV:   1    -0.257496176062E+03    0.76924E-03   -0.22053E+00  4800   0.262E+00    0.282E-01
RMM:   2    -0.257496457102E+03   -0.28104E-03   -0.24343E-02  4701   0.257E-01    0.399E-02
RMM:   3    -0.257496473594E+03   -0.16493E-04   -0.99861E-04  3485   0.760E-02
 103 F= -.25749647E+03 E0= -.25750677E+03  d E =0.411946E-01
       N       E                     dE             d eps       ncg     rms          rms(c)
DAV:   1    -0.257501053214E+03   -0.45961E-02   -0.63035E-01  4800   0.139E+00    0.164E-01
RMM:   2    -0.257501140699E+03   -0.87484E-04   -0.69817E-03  4340   0.142E-01    0.608E-02
RMM:   3    -0.257501159825E+03   -0.19127E-04   -0.29335E-04  2912   0.439E-02
 104 F= -.25750116E+03 E0= -.25751146E+03  d E =0.412085E-01
       N       E                     dE             d eps       ncg     rms          rms(c)
DAV:   1    -0.257501031757E+03    0.10894E-03   -0.32624E-01  4856   0.864E-01    0.156E-01
RMM:   2    -0.257501317049E+03   -0.28529E-03   -0.26939E-03  3804   0.850E-02    0.259E-02
RMM:   3    -0.257501326333E+03   -0.92844E-05   -0.14843E-04  2726   0.313E-02
 105 F= -.25750133E+03 E0= -.25751163E+03  d E =0.412071E-01
       N       E                     dE             d eps       ncg     rms          rms(c)
DAV:   1    -0.257501109660E+03    0.20739E-03   -0.16308E-01  4824   0.614E-01    0.113E-01
RMM:   2    -0.257501246703E+03   -0.13704E-03   -0.13623E-03  3431   0.601E-02    0.673E-02
RMM:   3    -0.257501211437E+03    0.35266E-04   -0.14316E-04  2745   0.280E-02
 106 F= -.25750121E+03 E0= -.25751152E+03  d E =0.412173E-01
       N       E                     dE             d eps       ncg     rms          rms(c)
DAV:   1    -0.257501035546E+03    0.21116E-03   -0.32623E-01  4848   0.871E-01    0.155E-01
RMM:   2    -0.257501345338E+03   -0.30979E-03   -0.26508E-03  3880   0.868E-02    0.245E-02
RMM:   3    -0.257501331726E+03    0.13612E-04   -0.11828E-04  2690   0.282E-02
 107 F= -.25750133E+03 E0= -.25751164E+03  d E =0.412169E-01
       N       E                     dE             d eps       ncg     rms          rms(c)
DAV:   1    -0.257498904260E+03    0.24411E-02   -0.17370E-01  4872   0.632E-01    0.161E-01
RMM:   2    -0.257498904836E+03   -0.57635E-06   -0.32480E-03  3866   0.922E-02    0.101E-01
RMM:   3    -0.257498747677E+03    0.15716E-03   -0.44521E-04  3028   0.402E-02    0.498E-02
RMM:   4    -0.257498709252E+03    0.38424E-04   -0.16263E-04  2767   0.284E-02
 108 F= -.25749871E+03 E0= -.25750900E+03  d E =0.411592E-01
       N       E                     dE             d eps       ncg     rms          rms(c)
DAV:   1    -0.257498926305E+03   -0.17863E-03   -0.37469E-01  4984   0.925E-01    0.277E-01
RMM:   2    -0.257498120316E+03    0.80599E-03   -0.12534E-02  4539   0.168E-01    0.327E-02
RMM:   3    -0.257498133724E+03   -0.13409E-04   -0.57683E-04  3128   0.498E-02
 109 F= -.25749813E+03 E0= -.25750843E+03  d E =0.411777E-01
       N       E                     dE             d eps       ncg     rms          rms(c)
DAV:   1    -0.257501452886E+03   -0.33326E-02   -0.17643E-01  5024   0.676E-01    0.164E-01
RMM:   2    -0.257501202535E+03    0.25035E-03   -0.44540E-03  4089   0.106E-01    0.678E-02
RMM:   3    -0.257501211485E+03   -0.89502E-05   -0.28222E-04  2879   0.366E-02
 110 F= -.25750121E+03 E0= -.25751153E+03  d E =0.412836E-01
       N       E                     dE             d eps       ncg     rms          rms(c)
DAV:   1    -0.257500829021E+03    0.37351E-03   -0.32957E-01  4952   0.839E-01    0.162E-01
RMM:   2    -0.257501078552E+03   -0.24953E-03   -0.28650E-03  3760   0.849E-02    0.253E-02
RMM:   3    -0.257501083697E+03   -0.51450E-05   -0.15785E-04  2724   0.306E-02
 111 F= -.25750108E+03 E0= -.25751137E+03  d E =0.411592E-01
       N       E                     dE             d eps       ncg     rms          rms(c)
DAV:   1    -0.257499286117E+03    0.17924E-02   -0.17489E-01  4944   0.613E-01    0.173E-01
RMM:   2    -0.257499046631E+03    0.23949E-03   -0.31370E-03  3850   0.933E-02    0.933E-02
RMM:   3    -0.257498957142E+03    0.89489E-04   -0.39946E-04  2977   0.383E-02
 112 F= -.25749896E+03 E0= -.25750928E+03  d E =0.412793E-01
       N       E                     dE             d eps       ncg     rms          rms(c)
DAV:   1    -0.257499376689E+03   -0.33006E-03   -0.36925E-01  4928   0.902E-01    0.264E-01
RMM:   2    -0.257498677948E+03    0.69874E-03   -0.10384E-02  4448   0.157E-01    0.399E-02
RMM:   3    -0.257498688951E+03   -0.11003E-04   -0.50525E-04  3020   0.511E-02
 113 F= -.25749869E+03 E0= -.25750899E+03  d E =0.411934E-01
       N       E                     dE             d eps       ncg     rms          rms(c)
DAV:   1    -0.257501002980E+03   -0.23250E-02   -0.16889E-01  4944   0.601E-01    0.133E-01
RMM:   2    -0.257501001505E+03    0.14749E-05   -0.22739E-03  3626   0.760E-02    0.598E-02
RMM:   3    -0.257501004884E+03   -0.33793E-05   -0.17725E-04  2763   0.322E-02
 114 F= -.25750100E+03 E0= -.25751130E+03  d E =0.411841E-01
       N       E                     dE             d eps       ncg     rms          rms(c)
DAV:   1    -0.257500721095E+03    0.28041E-03   -0.32793E-01  4864   0.835E-01    0.177E-01
RMM:   2    -0.257500811965E+03   -0.90871E-04   -0.37234E-03  3972   0.966E-02    0.239E-02
RMM:   3    -0.257500822710E+03   -0.10745E-04   -0.17665E-04  2756   0.334E-02
 115 F= -.25750082E+03 E0= -.25751112E+03  d E =0.411703E-01
       N       E                     dE             d eps       ncg     rms          rms(c)
DAV:   1    -0.257499738647E+03    0.10733E-02   -0.16939E-01  4880   0.626E-01    0.144E-01
RMM:   2    -0.257499838464E+03   -0.99817E-04   -0.29627E-03  3752   0.854E-02    0.898E-02
RMM:   3    -0.257499782816E+03    0.55649E-04   -0.16589E-04  2784   0.333E-02
 116 F= -.25749978E+03 E0= -.25751009E+03  d E =0.412196E-01
       N       E                     dE             d eps       ncg     rms          rms(c)
DAV:   1    -0.257499732751E+03    0.10571E-03   -0.35713E-01  4832   0.884E-01    0.232E-01
RMM:   2    -0.257499487528E+03    0.24522E-03   -0.76678E-03  4262   0.140E-01    0.438E-02
RMM:   3    -0.257499469804E+03    0.17723E-04   -0.36199E-04  2911   0.442E-02
 117 F= -.25749947E+03 E0= -.25750976E+03  d E =0.411807E-01
       N       E                     dE             d eps       ncg     rms          rms(c)
DAV:   1    -0.257499881479E+03   -0.39395E-03   -0.16557E-01  4968   0.592E-01    0.115E-01
RMM:   2    -0.257500027317E+03   -0.14584E-03   -0.16231E-03  3471   0.633E-02    0.698E-02
RMM:   3    -0.257500014523E+03    0.12794E-04   -0.13674E-04  2731   0.297E-02
 118 F= -.25750001E+03 E0= -.25751030E+03  d E =0.411490E-01
       N       E                     dE             d eps       ncg     rms          rms(c)
DAV:   1    -0.257500663420E+03   -0.63610E-03   -0.34261E-01  4920   0.856E-01    0.209E-01
RMM:   2    -0.257500459571E+03    0.20385E-03   -0.56059E-03  4135   0.117E-01    0.315E-02
RMM:   3    -0.257500470225E+03   -0.10654E-04   -0.28436E-04  2861   0.400E-02
 119 F= -.25750047E+03 E0= -.25751077E+03  d E =0.411977E-01
       N       E                     dE             d eps       ncg     rms          rms(c)
DAV:   1    -0.257501274343E+03   -0.81477E-03   -0.17106E-01  4928   0.610E-01    0.149E-01
RMM:   2    -0.257501153751E+03    0.12059E-03   -0.28707E-03  3697   0.817E-02    0.602E-02
RMM:   3    -0.257501169325E+03   -0.15574E-04   -0.33597E-04  2898   0.357E-02
 120 F= -.25750117E+03 E0= -.25751148E+03  d E =0.412398E-01
       N       E                     dE             d eps       ncg     rms          rms(c)
DAV:   1    -0.257500778223E+03    0.37553E-03   -0.32725E-01  4832   0.836E-01    0.171E-01
RMM:   2    -0.257500892989E+03   -0.11477E-03   -0.40339E-03  3925   0.953E-02    0.288E-02
RMM:   3    -0.257500888965E+03    0.40235E-05   -0.16485E-04  2740   0.348E-02
 121 F= -.25750089E+03 E0= -.25751119E+03  d E =0.411955E-01
