       N       E                     dE             d eps       ncg     rms          rms(c)
DAV:   1     0.350676747548E+04    0.35068E+04   -0.14374E+05 16360   0.117E+03
DAV:   2     0.182780421405E+03   -0.33240E+04   -0.30427E+04 17176   0.441E+02
DAV:   3    -0.218794653021E+03   -0.40158E+03   -0.36941E+03 20544   0.126E+02
DAV:   4    -0.249448213097E+03   -0.30654E+02   -0.27769E+02 23248   0.370E+01
DAV:   5    -0.250159385010E+03   -0.71117E+00   -0.70248E+00 21640   0.516E+00    0.346E+00
RMM:   6    -0.250511265472E+03   -0.35188E+00   -0.13570E+00 17664   0.211E+00    0.572E+00
RMM:   7    -0.249827106850E+03    0.68416E+00   -0.43755E-01 16900   0.109E+00    0.236E+00
RMM:   8    -0.249797717651E+03    0.29389E-01   -0.60693E-02 17651   0.545E-01    0.191E+00
RMM:   9    -0.249732529067E+03    0.65189E-01   -0.26752E-02 17033   0.330E-01    0.440E-01
RMM:  10    -0.249729149260E+03    0.33798E-02   -0.66476E-03 18094   0.171E-01    0.324E-01
RMM:  11    -0.249727770322E+03    0.13789E-02   -0.20379E-03 17956   0.936E-02    0.228E-01
RMM:  12    -0.249726914732E+03    0.85559E-03   -0.15583E-03 16444   0.933E-02    0.111E-01
RMM:  13    -0.249726820876E+03    0.93855E-04   -0.63204E-04 18775   0.497E-02    0.682E-02
RMM:  14    -0.249726850735E+03   -0.29858E-04   -0.18613E-04 17417   0.277E-02    0.460E-02
RMM:  15    -0.249726904785E+03   -0.54050E-04   -0.87581E-05 17043   0.204E-02    0.362E-02
RMM:  16    -0.249726958822E+03   -0.54037E-04   -0.40761E-05 16906   0.129E-02    0.196E-02
RMM:  17    -0.249727025273E+03   -0.66450E-04   -0.32121E-05 17256   0.938E-03    0.107E-02
RMM:  18    -0.249727070931E+03   -0.45658E-04   -0.12251E-05 13416   0.557E-03    0.824E-03
RMM:  19    -0.249727131793E+03   -0.60863E-04   -0.10874E-05 12045   0.546E-03    0.548E-03
RMM:  20    -0.249727185110E+03   -0.53317E-04   -0.14911E-05 12273   0.541E-03    0.243E-03
RMM:  21    -0.249727202509E+03   -0.17399E-04   -0.65125E-06 11949   0.301E-03    0.187E-03
RMM:  22    -0.249727219990E+03   -0.17482E-04   -0.44962E-06 11096   0.300E-03    0.142E-03
RMM:  23    -0.249727230087E+03   -0.10097E-04   -0.37663E-06 10896   0.247E-03    0.103E-03
RMM:  24    -0.249727237225E+03   -0.71371E-05   -0.36902E-06 10851   0.240E-03    0.738E-04
RMM:  25    -0.249727240076E+03   -0.28514E-05   -0.30995E-06 10349   0.219E-03    0.422E-04
RMM:  26    -0.249727240442E+03   -0.36599E-06   -0.13046E-06  8856   0.160E-03
   1 F= -.24972724E+03 E0= -.24971795E+03  d E =-.249727E+03
       N       E                     dE             d eps       ncg     rms          rms(c)
DAV:   1    -0.249729223313E+03   -0.19832E-02   -0.10338E-01 17032   0.596E-01    0.343E-02
RMM:   2    -0.249729365313E+03   -0.14200E-03   -0.15148E-03 16370   0.952E-02    0.268E-02
RMM:   3    -0.249729370660E+03   -0.53473E-05   -0.13228E-04 19665   0.311E-02    0.242E-02
RMM:   4    -0.249729366112E+03    0.45473E-05   -0.22629E-05 18361   0.781E-03    0.175E-02
RMM:   5    -0.249729358720E+03    0.73927E-05   -0.31088E-05 16384   0.104E-02    0.756E-03
RMM:   6    -0.249729356859E+03    0.18603E-05   -0.40326E-06 11085   0.598E-03    0.493E-03
RMM:   7    -0.249729355077E+03    0.17821E-05   -0.16100E-06  9486   0.325E-03    0.359E-03
RMM:   8    -0.249729353678E+03    0.13997E-05   -0.41427E-06 10949   0.328E-03    0.141E-03
RMM:   9    -0.249729353690E+03   -0.12627E-07   -0.72952E-07  9306   0.181E-03
   2 F= -.24972935E+03 E0= -.24972002E+03  d E =-.211325E-02
       N       E                     dE             d eps       ncg     rms          rms(c)
DAV:   1    -0.249731840127E+03   -0.24864E-02   -0.93034E-01 16728   0.179E+00    0.103E-01
RMM:   2    -0.249732926950E+03   -0.10868E-02   -0.11218E-02 16368   0.275E-01    0.212E-02
RMM:   3    -0.249733033105E+03   -0.10615E-03   -0.11711E-03 21886   0.826E-02    0.424E-03
RMM:   4    -0.249733039867E+03   -0.67618E-05   -0.62057E-05 15187   0.984E-03    0.297E-03
RMM:   5    -0.249733040165E+03   -0.29840E-06   -0.58606E-06 11603   0.484E-03
   3 F= -.24973304E+03 E0= -.24972360E+03  d E =-.579972E-02
       N       E                     dE             d eps       ncg     rms          rms(c)
DAV:   1    -0.249733185927E+03   -0.14606E-03   -0.16802E-01 16752   0.759E-01    0.441E-02
RMM:   2    -0.249733384247E+03   -0.19832E-03   -0.19919E-03 16376   0.115E-01    0.130E-02
RMM:   3    -0.249733402489E+03   -0.18242E-04   -0.20837E-04 21964   0.350E-02    0.395E-03
RMM:   4    -0.249733402588E+03   -0.99368E-07   -0.11358E-05 12595   0.424E-03    0.240E-03
RMM:   5    -0.249733402283E+03    0.30514E-06   -0.99797E-07  9431   0.206E-03
   4 F= -.24973340E+03 E0= -.24972392E+03  d E =-.616184E-02
       N       E                     dE             d eps       ncg     rms          rms(c)
DAV:   1    -0.249734980885E+03   -0.15783E-02   -0.20822E-01 16624   0.849E-01    0.505E-02
RMM:   2    -0.249735250001E+03   -0.26912E-03   -0.31636E-03 16366   0.135E-01    0.439E-02
RMM:   3    -0.249735254757E+03   -0.47564E-05   -0.33242E-04 20235   0.466E-02    0.472E-02
RMM:   4    -0.249735285181E+03   -0.30424E-04   -0.15523E-04 16688   0.198E-02    0.353E-02
RMM:   5    -0.249735284039E+03    0.11418E-05   -0.49941E-05 16670   0.134E-02    0.346E-02
RMM:   6    -0.249735267793E+03    0.16246E-04   -0.11676E-05 16218   0.640E-03    0.283E-02
RMM:   7    -0.249735255000E+03    0.12793E-04   -0.19258E-05 16540   0.961E-03    0.180E-02
RMM:   8    -0.249735250759E+03    0.42412E-05   -0.11449E-05 16084   0.719E-03    0.121E-02
RMM:   9    -0.249735249888E+03    0.87048E-06   -0.16028E-06  9425   0.298E-03
   5 F= -.24973525E+03 E0= -.24972573E+03  d E =-.184760E-02
       N       E                     dE             d eps       ncg     rms          rms(c)
DAV:   1    -0.249735455607E+03   -0.20485E-03   -0.55071E-01 16368   0.138E+00    0.805E-02
RMM:   2    -0.249736077238E+03   -0.62163E-03   -0.69291E-03 16363   0.212E-01    0.106E-02
RMM:   3    -0.249736140568E+03   -0.63330E-04   -0.70099E-04 21505   0.648E-02    0.205E-02
RMM:   4    -0.249736141100E+03   -0.53176E-06   -0.45147E-05 14326   0.870E-03    0.185E-02
RMM:   5    -0.249736137085E+03    0.40150E-05   -0.82431E-06 15777   0.607E-03    0.128E-02
RMM:   6    -0.249736135063E+03    0.20223E-05   -0.91182E-06 16193   0.607E-03    0.625E-03
RMM:   7    -0.249736134767E+03    0.29544E-06   -0.34854E-06 10488   0.457E-03
   6 F= -.24973613E+03 E0= -.24972655E+03  d E =-.273248E-02
       N       E                     dE             d eps       ncg     rms          rms(c)
DAV:   1    -0.249736153442E+03   -0.18379E-04   -0.12286E-02 16864   0.206E-01    0.131E-02
RMM:   2    -0.249736168326E+03   -0.14884E-04   -0.14687E-04 16368   0.311E-02    0.492E-03
RMM:   3    -0.249736169084E+03   -0.75799E-06   -0.13265E-05 17188   0.938E-03    0.304E-03
RMM:   4    -0.249736168992E+03    0.91866E-07   -0.20377E-06  9107   0.318E-03
   7 F= -.24973617E+03 E0= -.24972659E+03  d E =-.276671E-02
       N       E                     dE             d eps       ncg     rms          rms(c)
DAV:   1    -0.249736905294E+03   -0.73621E-03   -0.75399E-02 16488   0.520E-01    0.309E-02
RMM:   2    -0.249737002562E+03   -0.97267E-04   -0.10816E-03 16361   0.822E-02    0.252E-02
RMM:   3    -0.249737002116E+03    0.44546E-06   -0.11517E-04 21119   0.260E-02    0.220E-02
RMM:   4    -0.249737005660E+03   -0.35442E-05   -0.56827E-05 16421   0.134E-02    0.101E-02
RMM:   5    -0.249737004748E+03    0.91180E-06   -0.16379E-05 16652   0.718E-03    0.612E-03
RMM:   6    -0.249737003110E+03    0.16383E-05   -0.30461E-06 10143   0.398E-03    0.376E-03
RMM:   7    -0.249737004167E+03   -0.10571E-05   -0.17169E-06  9173   0.405E-03    0.368E-03
RMM:   8    -0.249737004201E+03   -0.34230E-07   -0.67820E-07  8962   0.188E-03
   8 F= -.24973700E+03 E0= -.24972742E+03  d E =-.835209E-03
       N       E                     dE             d eps       ncg     rms          rms(c)
DAV:   1    -0.249737294901E+03   -0.29073E-03   -0.67965E-01 16336   0.156E+00    0.939E-02
RMM:   2    -0.249738104346E+03   -0.80944E-03   -0.76104E-03 16355   0.229E-01    0.297E-02
RMM:   3    -0.249738182406E+03   -0.78061E-04   -0.87374E-04 22931   0.669E-02    0.112E-02
RMM:   4    -0.249738184321E+03   -0.19149E-05   -0.24488E-05 14734   0.667E-03    0.116E-02
RMM:   5    -0.249738183658E+03    0.66331E-06   -0.38871E-06 10227   0.469E-03
   9 F= -.24973818E+03 E0= -.24972858E+03  d E =-.201467E-02
       N       E                     dE             d eps       ncg     rms          rms(c)
DAV:   1    -0.249738992229E+03   -0.80791E-03   -0.11877E-01 16544   0.648E-01    0.429E-02
RMM:   2    -0.249739130190E+03   -0.13796E-03   -0.15550E-03 16364   0.101E-01    0.297E-02
RMM:   3    -0.249739148104E+03   -0.17913E-04   -0.22319E-04 22551   0.334E-02    0.267E-02
RMM:   4    -0.249739145312E+03    0.27912E-05   -0.43790E-05 16853   0.118E-02    0.174E-02
RMM:   5    -0.249739144257E+03    0.10554E-05   -0.85033E-06 13905   0.684E-03    0.153E-02
RMM:   6    -0.249739140570E+03    0.36866E-05   -0.82489E-06 16096   0.554E-03    0.104E-02
RMM:   7    -0.249739139902E+03    0.66795E-06   -0.58006E-06 14287   0.585E-03
  10 F= -.24973914E+03 E0= -.24972955E+03  d E =-.956244E-03
       N       E                     dE             d eps       ncg     rms          rms(c)
DAV:   1    -0.249739023532E+03    0.11704E-03   -0.88541E-01 16336   0.177E+00    0.115E-01
RMM:   2    -0.249740001201E+03   -0.97767E-03   -0.10224E-02 16367   0.268E-01    0.178E-02
RMM:   3    -0.249740114076E+03   -0.11287E-03   -0.12178E-03 22520   0.794E-02    0.229E-02
RMM:   4    -0.249740115168E+03   -0.10919E-05   -0.41449E-05 15485   0.835E-03    0.227E-02
RMM:   5    -0.249740110779E+03    0.43882E-05   -0.72371E-06 13935   0.558E-03    0.183E-02
RMM:   6    -0.249740106871E+03    0.39086E-05   -0.75761E-06 15955   0.517E-03    0.140E-02
RMM:   7    -0.249740103281E+03    0.35900E-05   -0.36528E-06 10596   0.434E-03    0.104E-02
RMM:   8    -0.249740101049E+03    0.22314E-05   -0.26073E-06  9256   0.375E-03    0.757E-03
RMM:   9    -0.249740100381E+03    0.66884E-06   -0.10576E-06  9064   0.336E-03
  11 F= -.24974010E+03 E0= -.24973054E+03  d E =-.191672E-02
       N       E                     dE             d eps       ncg     rms          rms(c)
DAV:   1    -0.249740600306E+03   -0.49926E-03   -0.85342E-02 16616   0.555E-01    0.357E-02
RMM:   2    -0.249740718863E+03   -0.11856E-03   -0.11581E-03 16367   0.862E-02    0.284E-02
RMM:   3    -0.249740740359E+03   -0.21497E-04   -0.14773E-04 21529   0.284E-02    0.360E-02
RMM:   4    -0.249740726526E+03    0.13833E-04   -0.21715E-05 17484   0.112E-02    0.275E-02
RMM:   5    -0.249740721757E+03    0.47688E-05   -0.94676E-06 15833   0.596E-03    0.231E-02
RMM:   6    -0.249740716435E+03    0.53222E-05   -0.64614E-06 13791   0.542E-03    0.200E-02
RMM:   7    -0.249740710340E+03    0.60951E-05   -0.48163E-06 13283   0.455E-03    0.156E-02
RMM:   8    -0.249740704654E+03    0.56855E-05   -0.61180E-06 15032   0.521E-03    0.106E-02
RMM:   9    -0.249740701903E+03    0.27513E-05   -0.32858E-06 10051   0.428E-03    0.702E-03
RMM:  10    -0.249740700764E+03    0.11385E-05   -0.18659E-06  9010   0.373E-03    0.499E-03
RMM:  11    -0.249740700458E+03    0.30640E-06   -0.84380E-07  8872   0.305E-03
  12 F= -.24974070E+03 E0= -.24973116E+03  d E =-.600077E-03
       N       E                     dE             d eps       ncg     rms          rms(c)
DAV:   1    -0.249740563833E+03    0.13693E-03   -0.76837E-01 16320   0.166E+00    0.109E-01
RMM:   2    -0.249741431539E+03   -0.86771E-03   -0.83911E-03 16366   0.245E-01    0.274E-02
RMM:   3    -0.249741519348E+03   -0.87809E-04   -0.99368E-04 22886   0.697E-02    0.167E-02
RMM:   4    -0.249741516643E+03    0.27048E-05   -0.28860E-05 16026   0.786E-03    0.126E-02
RMM:   5    -0.249741514789E+03    0.18543E-05   -0.34789E-06 10121   0.420E-03    0.102E-02
RMM:   6    -0.249741513891E+03    0.89769E-06   -0.19941E-06  9314   0.349E-03
  13 F= -.24974151E+03 E0= -.24973201E+03  d E =-.141351E-02
       N       E                     dE             d eps       ncg     rms          rms(c)
DAV:   1    -0.249742012836E+03   -0.49805E-03   -0.24399E-02 16712   0.311E-01    0.258E-02
RMM:   2    -0.249742108117E+03   -0.95281E-04   -0.65936E-04 16366   0.556E-02    0.455E-02
RMM:   3    -0.249742140102E+03   -0.31985E-04   -0.85597E-05 17204   0.247E-02    0.525E-02
RMM:   4    -0.249742074963E+03    0.65139E-04   -0.79152E-05 16363   0.174E-02    0.281E-02
RMM:   5    -0.249742064286E+03    0.10677E-04   -0.16976E-05 16350   0.109E-02    0.219E-02
RMM:   6    -0.249742058375E+03    0.59106E-05   -0.95275E-06 15741   0.563E-03    0.176E-02
RMM:   7    -0.249742052229E+03    0.61464E-05   -0.97034E-06 16019   0.664E-03    0.123E-02
RMM:   8    -0.249742050659E+03    0.15702E-05   -0.22706E-06  9372   0.353E-03    0.101E-02
RMM:   9    -0.249742049486E+03    0.11730E-05   -0.11629E-06  9149   0.331E-03    0.878E-03
RMM:  10    -0.249742047792E+03    0.16940E-05   -0.20111E-06  9108   0.354E-03    0.598E-03
RMM:  11    -0.249742047012E+03    0.77990E-06   -0.15249E-06  8992   0.320E-03
  14 F= -.24974205E+03 E0= -.24973255E+03  d E =-.533121E-03
