       N       E                     dE             d eps       ncg     rms          rms(c)
DAV:   1     0.354534057224E+04    0.35453E+04   -0.14249E+05 16288   0.117E+03
DAV:   2     0.198805519884E+03   -0.33465E+04   -0.30740E+04 16908   0.448E+02
DAV:   3    -0.230486203116E+03   -0.42929E+03   -0.39958E+03 21664   0.131E+02
DAV:   4    -0.264905727138E+03   -0.34420E+02   -0.30969E+02 23736   0.380E+01
DAV:   5    -0.266104760009E+03   -0.11990E+01   -0.11632E+01 22456   0.601E+00    0.282E+01
RMM:   6    -0.257310469121E+03    0.87943E+01   -0.16602E+01 18254   0.755E+00    0.218E+01
RMM:   7    -0.264416045174E+03   -0.71056E+01   -0.19810E+01 17885   0.804E+00    0.264E+01
RMM:   8    -0.264926452956E+03   -0.51041E+00   -0.15766E+01 18136   0.714E+00    0.259E+01
RMM:   9    -0.244292301859E+03    0.20634E+02   -0.11412E+01 16567   0.844E+00    0.121E+01
RMM:  10    -0.242562278208E+03    0.17300E+01   -0.32366E+00 18171   0.352E+00    0.731E+00
RMM:  11    -0.242121357502E+03    0.44092E+00   -0.19519E+00 16651   0.328E+00    0.543E+00
RMM:  12    -0.241759448976E+03    0.36191E+00   -0.68504E-01 17275   0.185E+00    0.268E+00
RMM:  13    -0.241746265744E+03    0.13183E-01   -0.20586E-01 17743   0.957E-01    0.188E+00
RMM:  14    -0.241760773747E+03   -0.14508E-01   -0.99384E-02 16861   0.651E-01    0.130E+00
RMM:  15    -0.241739971212E+03    0.20803E-01   -0.59148E-02 16905   0.527E-01    0.872E-01
RMM:  16    -0.241732187867E+03    0.77833E-02   -0.30058E-02 18515   0.336E-01    0.527E-01
RMM:  17    -0.241738040346E+03   -0.58525E-02   -0.11874E-02 17374   0.200E-01    0.455E-01
RMM:  18    -0.241739166943E+03   -0.11266E-02   -0.79149E-03 16437   0.169E-01    0.298E-01
RMM:  19    -0.241739047843E+03    0.11910E-03   -0.32468E-03 16406   0.133E-01    0.184E-01
RMM:  20    -0.241739047965E+03   -0.12239E-06   -0.22666E-03 16896   0.909E-02    0.121E-01
RMM:  21    -0.241738857286E+03    0.19068E-03   -0.13598E-03 16617   0.805E-02    0.950E-02
RMM:  22    -0.241738690577E+03    0.16671E-03   -0.54669E-04 18864   0.421E-02    0.486E-02
RMM:  23    -0.241738611502E+03    0.79075E-04   -0.23273E-04 16394   0.295E-02    0.350E-02
RMM:  24    -0.241738738007E+03   -0.12651E-03   -0.40073E-04 16245   0.388E-02    0.218E-02
RMM:  25    -0.241738873531E+03   -0.13552E-03   -0.18461E-04 17782   0.216E-02    0.207E-02
RMM:  26    -0.241738973797E+03   -0.10027E-03   -0.83667E-05 16218   0.161E-02    0.972E-03
RMM:  27    -0.241739090597E+03   -0.11680E-03   -0.84581E-05 16462   0.155E-02    0.854E-03
RMM:  28    -0.241739155798E+03   -0.65201E-04   -0.34703E-05 16725   0.913E-03    0.568E-03
RMM:  29    -0.241739217810E+03   -0.62013E-04   -0.28869E-05 16019   0.859E-03    0.343E-03
RMM:  30    -0.241739242348E+03   -0.24537E-04   -0.11873E-05 14293   0.496E-03    0.258E-03
RMM:  31    -0.241739251401E+03   -0.90537E-05   -0.35925E-06 10954   0.291E-03    0.181E-03
RMM:  32    -0.241739259872E+03   -0.84712E-05   -0.40951E-06 11352   0.323E-03    0.915E-04
RMM:  33    -0.241739262349E+03   -0.24771E-05   -0.16020E-06  9647   0.224E-03    0.987E-04
RMM:  34    -0.241739262871E+03   -0.52177E-06   -0.56922E-07  9105   0.165E-03
   1 F= -.24173926E+03 E0= -.24173346E+03  d E =-.241739E+03
       N       E                     dE             d eps       ncg     rms          rms(c)
DAV:   1    -0.241796155653E+03   -0.56893E-01   -0.36926E+00 16776   0.336E+00    0.200E-01
RMM:   2    -0.241800991474E+03   -0.48358E-02   -0.49649E-02 16219   0.589E-01    0.154E-01
RMM:   3    -0.241801507736E+03   -0.51626E-03   -0.64266E-03 23003   0.167E-01    0.127E-01
RMM:   4    -0.241801377777E+03    0.12996E-03   -0.32154E-04 17432   0.380E-02    0.992E-02
RMM:   5    -0.241801244468E+03    0.13331E-03   -0.83365E-04 16356   0.548E-02    0.333E-02
RMM:   6    -0.241801261783E+03   -0.17314E-04   -0.81660E-05 16278   0.302E-02    0.229E-02
RMM:   7    -0.241801265331E+03   -0.35482E-05   -0.24396E-05 16841   0.115E-02    0.115E-02
RMM:   8    -0.241801271236E+03   -0.59046E-05   -0.61350E-06 13940   0.536E-03    0.516E-03
RMM:   9    -0.241801271964E+03   -0.72825E-06   -0.20690E-06  9154   0.417E-03
   2 F= -.24180127E+03 E0= -.24179539E+03  d E =-.620091E-01
       N       E                     dE             d eps       ncg     rms          rms(c)
DAV:   1    -0.241880110004E+03   -0.78839E-01   -0.33173E+01 16196   0.101E+01    0.699E-01
RMM:   2    -0.241933942530E+03   -0.53833E-01   -0.51146E-01 16216   0.241E+00    0.232E-01
RMM:   3    -0.241942467327E+03   -0.85248E-02   -0.93615E-02 17010   0.531E-01    0.110E-01
RMM:   4    -0.241942748604E+03   -0.28128E-03   -0.39633E-03 16533   0.232E-01    0.937E-02
RMM:   5    -0.241942750036E+03   -0.14322E-05   -0.10981E-03 19990   0.520E-02    0.522E-02
RMM:   6    -0.241942769744E+03   -0.19708E-04   -0.33800E-04 16723   0.478E-02    0.351E-02
RMM:   7    -0.241942749534E+03    0.20210E-04   -0.45702E-05 19275   0.134E-02    0.234E-02
RMM:   8    -0.241942738376E+03    0.11159E-04   -0.35954E-05 16339   0.113E-02    0.937E-03
RMM:   9    -0.241942739708E+03   -0.13327E-05   -0.12311E-05 15926   0.882E-03    0.242E-03
RMM:  10    -0.241942740172E+03   -0.46387E-06   -0.22680E-06  9467   0.316E-03
   3 F= -.24194274E+03 E0= -.24193660E+03  d E =-.203477E+00
       N       E                     dE             d eps       ncg     rms          rms(c)
DAV:   1    -0.241668136335E+03    0.27460E+00   -0.13309E+02 16184   0.205E+01    0.161E+00
RMM:   2    -0.241978763256E+03   -0.31063E+00   -0.27030E+00 16216   0.543E+00    0.676E-01
RMM:   3    -0.242026295296E+03   -0.47532E-01   -0.56884E-01 16813   0.129E+00    0.298E-01
RMM:   4    -0.242029082369E+03   -0.27871E-02   -0.30965E-02 16456   0.699E-01    0.152E-01
RMM:   5    -0.242029620677E+03   -0.53831E-03   -0.63204E-03 21361   0.117E-01    0.109E-01
RMM:   6    -0.242029906225E+03   -0.28555E-03   -0.12540E-03 17393   0.702E-02    0.117E-01
RMM:   7    -0.242029755785E+03    0.15044E-03   -0.35077E-04 16708   0.526E-02    0.579E-02
RMM:   8    -0.242029692661E+03    0.63124E-04   -0.23987E-04 17874   0.307E-02    0.217E-02
RMM:   9    -0.242029705899E+03   -0.13239E-04   -0.18675E-04 16418   0.353E-02    0.215E-02
RMM:  10    -0.242029711038E+03   -0.51389E-05   -0.31423E-05 20482   0.103E-02    0.237E-02
RMM:  11    -0.242029703028E+03    0.80104E-05   -0.14553E-05 15997   0.866E-03    0.119E-02
RMM:  12    -0.242029701591E+03    0.14366E-05   -0.12032E-05 15623   0.768E-03    0.430E-03
RMM:  13    -0.242029701721E+03   -0.12941E-06   -0.46524E-06 11849   0.551E-03
   4 F= -.24202970E+03 E0= -.24202301E+03  d E =-.290439E+00
       N       E                     dE             d eps       ncg     rms          rms(c)
DAV:   1    -0.242030759077E+03   -0.10575E-02   -0.22215E+01 16184   0.886E+00    0.636E-01
RMM:   2    -0.242070497342E+03   -0.39738E-01   -0.39578E-01 16248   0.178E+00    0.483E-01
RMM:   3    -0.242077972700E+03   -0.74754E-02   -0.86816E-02 20837   0.554E-01    0.580E-01
RMM:   4    -0.242070683120E+03    0.72896E-02   -0.16689E-02 16293   0.310E-01    0.288E-01
RMM:   5    -0.242069555192E+03    0.11279E-02   -0.17161E-02 17093   0.254E-01    0.169E-01
RMM:   6    -0.242069121813E+03    0.43338E-03   -0.14372E-03 16499   0.114E-01    0.107E-01
RMM:   7    -0.242068955663E+03    0.16615E-03   -0.16245E-03 16230   0.802E-02    0.638E-02
RMM:   8    -0.242068948721E+03    0.69415E-05   -0.25798E-04 16347   0.511E-02    0.479E-02
RMM:   9    -0.242068928488E+03    0.20233E-04   -0.85838E-05 16644   0.197E-02    0.271E-02
RMM:  10    -0.242068916666E+03    0.11822E-04   -0.71851E-05 16677   0.164E-02    0.965E-03
RMM:  11    -0.242068921396E+03   -0.47304E-05   -0.19542E-05 16193   0.118E-02    0.493E-03
RMM:  12    -0.242068923532E+03   -0.21353E-05   -0.47262E-06 11971   0.428E-03    0.532E-03
RMM:  13    -0.242068924224E+03   -0.69221E-06   -0.27174E-06  9704   0.452E-03
   5 F= -.24206892E+03 E0= -.24206220E+03  d E =-.392225E-01
       N       E                     dE             d eps       ncg     rms          rms(c)
DAV:   1    -0.242069598041E+03   -0.67451E-03   -0.57245E-01 16550   0.142E+00    0.941E-02
RMM:   2    -0.242070316511E+03   -0.71847E-03   -0.81966E-03 16247   0.221E-01    0.176E-02
RMM:   3    -0.242070403028E+03   -0.86517E-04   -0.83698E-04 21713   0.706E-02    0.823E-03
RMM:   4    -0.242070409037E+03   -0.60093E-05   -0.60322E-05 17688   0.108E-02    0.780E-03
RMM:   5    -0.242070409292E+03   -0.25438E-06   -0.36183E-06 10076   0.474E-03
   6 F= -.24207041E+03 E0= -.24206369E+03  d E =-.407076E-01
       N       E                     dE             d eps       ncg     rms          rms(c)
DAV:   1    -0.242100591818E+03   -0.30183E-01   -0.88793E+00 16184   0.563E+00    0.330E-01
RMM:   2    -0.242115178644E+03   -0.14587E-01   -0.13967E-01 16218   0.959E-01    0.350E-01
RMM:   3    -0.242116724066E+03   -0.15454E-02   -0.19422E-02 22693   0.309E-01    0.377E-01
RMM:   4    -0.242113128675E+03    0.35954E-02   -0.11906E-02 16219   0.228E-01    0.119E-01
RMM:   5    -0.242112984313E+03    0.14436E-03   -0.25136E-03 19880   0.108E-01    0.497E-02
RMM:   6    -0.242113019826E+03   -0.35513E-04   -0.34176E-04 17229   0.435E-02    0.410E-02
RMM:   7    -0.242112991185E+03    0.28642E-04   -0.11200E-04 17203   0.236E-02    0.204E-02
RMM:   8    -0.242112989331E+03    0.18537E-05   -0.44633E-05 16854   0.149E-02    0.115E-02
RMM:   9    -0.242112991583E+03   -0.22518E-05   -0.13309E-05 16317   0.765E-03    0.880E-03
RMM:  10    -0.242112992287E+03   -0.70449E-06   -0.34473E-06 10482   0.491E-03
   7 F= -.24211299E+03 E0= -.24210641E+03  d E =-.425830E-01
       N       E                     dE             d eps       ncg     rms          rms(c)
DAV:   1    -0.242115094175E+03   -0.21026E-02   -0.70636E+00 16184   0.502E+00    0.293E-01
RMM:   2    -0.242123842674E+03   -0.87485E-02   -0.90653E-02 16220   0.792E-01    0.651E-02
RMM:   3    -0.242124909879E+03   -0.10672E-02   -0.11143E-02 22699   0.236E-01    0.192E-02
RMM:   4    -0.242124947024E+03   -0.37145E-04   -0.31880E-04 21641   0.220E-02    0.172E-02
RMM:   5    -0.242124945962E+03    0.10619E-05   -0.30109E-05 17216   0.991E-03    0.926E-03
RMM:   6    -0.242124946635E+03   -0.67246E-06   -0.41517E-06  9820   0.463E-03
   8 F= -.24212495E+03 E0= -.24211848E+03  d E =-.545373E-01
       N       E                     dE             d eps       ncg     rms          rms(c)
DAV:   1    -0.242129546293E+03   -0.46003E-02   -0.89445E+00 16184   0.573E+00    0.376E-01
RMM:   2    -0.242143560759E+03   -0.14014E-01   -0.15028E-01 16222   0.958E-01    0.286E-01
RMM:   3    -0.242144981700E+03   -0.14209E-02   -0.17510E-02 22435   0.298E-01    0.294E-01
RMM:   4    -0.242143275946E+03    0.17058E-02   -0.47291E-03 16637   0.130E-01    0.122E-01
RMM:   5    -0.242143083556E+03    0.19239E-03   -0.22756E-03 16653   0.104E-01    0.836E-02
RMM:   6    -0.242143071893E+03    0.11663E-04   -0.55925E-04 16224   0.516E-02    0.581E-02
RMM:   7    -0.242143060991E+03    0.10902E-04   -0.11276E-04 16652   0.239E-02    0.434E-02
RMM:   8    -0.242143033441E+03    0.27550E-04   -0.75177E-05 16369   0.211E-02    0.247E-02
RMM:   9    -0.242143024679E+03    0.87619E-05   -0.23094E-05 16868   0.116E-02    0.163E-02
RMM:  10    -0.242143025498E+03   -0.81874E-06   -0.11189E-05 16126   0.719E-03    0.135E-02
RMM:  11    -0.242143023654E+03    0.18432E-05   -0.66825E-06 14509   0.537E-03    0.805E-03
RMM:  12    -0.242143022966E+03    0.68847E-06   -0.33823E-06 10126   0.437E-03
   9 F= -.24214302E+03 E0= -.24213672E+03  d E =-.180763E-01
       N       E                     dE             d eps       ncg     rms          rms(c)
DAV:   1    -0.242143217439E+03   -0.19378E-03   -0.14613E-01 16556   0.732E-01    0.473E-02
RMM:   2    -0.242143408336E+03   -0.19090E-03   -0.21971E-03 16230   0.113E-01    0.109E-02
RMM:   3    -0.242143428656E+03   -0.20320E-04   -0.21452E-04 20641   0.378E-02    0.470E-03
RMM:   4    -0.242143430271E+03   -0.16152E-05   -0.22040E-05 14311   0.662E-03    0.242E-03
RMM:   5    -0.242143430400E+03   -0.12920E-06   -0.14155E-06  9425   0.325E-03
  10 F= -.24214343E+03 E0= -.24213711E+03  d E =-.184838E-01
       N       E                     dE             d eps       ncg     rms          rms(c)
DAV:   1    -0.242153245865E+03   -0.98156E-02   -0.14104E+00 16196   0.231E+00    0.168E-01
RMM:   2    -0.242155444792E+03   -0.21989E-02   -0.21940E-02 16218   0.352E-01    0.156E-01
RMM:   3    -0.242155364242E+03    0.80550E-04   -0.27296E-03 20767   0.124E-01    0.108E-01
RMM:   4    -0.242155287454E+03    0.76788E-04   -0.77371E-04 16495   0.534E-02    0.862E-02
RMM:   5    -0.242155266385E+03    0.21070E-04   -0.34053E-04 17223   0.395E-02    0.772E-02
RMM:   6    -0.242155244362E+03    0.22023E-04   -0.16702E-04 16216   0.297E-02    0.592E-02
RMM:   7    -0.242155241377E+03    0.29853E-05   -0.12294E-04 16223   0.238E-02    0.395E-02
RMM:   8    -0.242155224124E+03    0.17253E-04   -0.83398E-05 16516   0.191E-02    0.198E-02
RMM:   9    -0.242155223666E+03    0.45798E-06   -0.44322E-05 18123   0.146E-02    0.792E-03
RMM:  10    -0.242155226418E+03   -0.27522E-05   -0.15155E-05 16431   0.754E-03    0.427E-03
RMM:  11    -0.242155227098E+03   -0.68014E-06   -0.16711E-06  9180   0.397E-03
  11 F= -.24215523E+03 E0= -.24214897E+03  d E =-.117967E-01
       N       E                     dE             d eps       ncg     rms          rms(c)
DAV:   1    -0.242157237524E+03   -0.20111E-02   -0.31586E+00 16184   0.346E+00    0.253E-01
RMM:   2    -0.242161221763E+03   -0.39842E-02   -0.44995E-02 16220   0.514E-01    0.397E-02
RMM:   3    -0.242161678334E+03   -0.45657E-03   -0.45518E-03 21832   0.165E-01    0.145E-02
RMM:   4    -0.242161711096E+03   -0.32762E-04   -0.29922E-04 20106   0.218E-02    0.119E-02
RMM:   5    -0.242161712185E+03   -0.10883E-05   -0.22063E-05 13237   0.101E-02    0.979E-03
RMM:   6    -0.242161712669E+03   -0.48405E-06   -0.54931E-06 10624   0.486E-03
  12 F= -.24216171E+03 E0= -.24215555E+03  d E =-.182823E-01
       N       E                     dE             d eps       ncg     rms          rms(c)
DAV:   1    -0.242168488838E+03   -0.67767E-02   -0.14126E+00 16184   0.231E+00    0.182E-01
RMM:   2    -0.242170963980E+03   -0.24751E-02   -0.24482E-02 16227   0.364E-01    0.144E-01
RMM:   3    -0.242171009827E+03   -0.45847E-04   -0.22894E-03 20033   0.125E-01    0.135E-01
RMM:   4    -0.242170618405E+03    0.39142E-03   -0.16056E-03 16681   0.713E-02    0.618E-02
RMM:   5    -0.242170604197E+03    0.14209E-04   -0.40718E-04 16539   0.530E-02    0.495E-02
RMM:   6    -0.242170562860E+03    0.41337E-04   -0.83484E-05 16657   0.185E-02    0.346E-02
RMM:   7    -0.242170566332E+03   -0.34723E-05   -0.54115E-05 16228   0.174E-02    0.236E-02
RMM:   8    -0.242170570948E+03   -0.46160E-05   -0.35154E-05 17102   0.119E-02    0.196E-02
RMM:   9    -0.242170570651E+03    0.29737E-06   -0.80632E-06 14833   0.654E-03
  13 F= -.24217057E+03 E0= -.24216444E+03  d E =-.885798E-02
       N       E                     dE             d eps       ncg     rms          rms(c)
DAV:   1    -0.242171276681E+03   -0.70573E-03   -0.10047E+00 16184   0.195E+00    0.153E-01
RMM:   2    -0.242172571495E+03   -0.12948E-02   -0.14969E-02 16229   0.294E-01    0.151E-02
RMM:   3    -0.242172723283E+03   -0.15179E-03   -0.14552E-03 21867   0.932E-02    0.177E-02
RMM:   4    -0.242172742866E+03   -0.19583E-04   -0.10260E-04 18315   0.131E-02    0.169E-02
RMM:   5    -0.242172745624E+03   -0.27577E-05   -0.81613E-06 11270   0.598E-03    0.138E-02
RMM:   6    -0.242172747175E+03   -0.15513E-05   -0.44925E-06 11670   0.416E-03    0.105E-02
RMM:   7    -0.242172747020E+03    0.15443E-06   -0.15784E-06  9177   0.324E-03
  14 F= -.24217275E+03 E0= -.24216665E+03  d E =-.110344E-01
       N       E                     dE             d eps       ncg     rms          rms(c)
DAV:   1    -0.242178534544E+03   -0.57874E-02   -0.13718E+00 16208   0.226E+00    0.180E-01
RMM:   2    -0.242180465134E+03   -0.19306E-02   -0.21621E-02 16219   0.359E-01    0.114E-01
RMM:   3    -0.242180474551E+03   -0.94173E-05   -0.22370E-03 21239   0.116E-01    0.102E-01
RMM:   4    -0.242180298366E+03    0.17619E-03   -0.12831E-03 16616   0.643E-02    0.698E-02
RMM:   5    -0.242180368214E+03   -0.69849E-04   -0.18437E-04 16267   0.286E-02    0.461E-02
RMM:   6    -0.242180406063E+03   -0.37848E-04   -0.73084E-05 16649   0.177E-02    0.319E-02
RMM:   7    -0.242180428073E+03   -0.22011E-04   -0.56696E-05 16470   0.128E-02    0.214E-02
RMM:   8    -0.242180430597E+03   -0.25234E-05   -0.14470E-05 16930   0.832E-03    0.174E-02
RMM:   9    -0.242180434668E+03   -0.40714E-05   -0.71454E-06 15178   0.503E-03    0.143E-02
RMM:  10    -0.242180434815E+03   -0.14663E-06   -0.28825E-06  9589   0.431E-03
  15 F= -.24218043E+03 E0= -.24217434E+03  d E =-.768779E-02
       N       E                     dE             d eps       ncg     rms          rms(c)
DAV:   1    -0.242180726721E+03   -0.29205E-03   -0.15523E+00 16184   0.241E+00    0.191E-01
RMM:   2    -0.242182616345E+03   -0.18896E-02   -0.20664E-02 16219   0.366E-01    0.241E-02
RMM:   3    -0.242182841764E+03   -0.22542E-03   -0.21737E-03 22620   0.107E-01    0.998E-03
RMM:   4    -0.242182859917E+03   -0.18153E-04   -0.92121E-05 18270   0.120E-02    0.681E-03
RMM:   5    -0.242182867549E+03   -0.76315E-05   -0.89020E-06 12162   0.560E-03    0.559E-03
RMM:   6    -0.242182869414E+03   -0.18650E-05   -0.28173E-06 10062   0.325E-03    0.444E-03
RMM:   7    -0.242182869734E+03   -0.31991E-06   -0.10549E-06  9149   0.268E-03
  16 F= -.24218287E+03 E0= -.24217678E+03  d E =-.101227E-01
       N       E                     dE             d eps       ncg     rms          rms(c)
DAV:   1    -0.242186855954E+03   -0.39865E-02   -0.17751E+00 16196   0.262E+00    0.218E-01
RMM:   2    -0.242189120678E+03   -0.22647E-02   -0.26870E-02 16220   0.415E-01    0.113E-01
RMM:   3    -0.242189252914E+03   -0.13224E-03   -0.30040E-03 22577   0.119E-01    0.108E-01
RMM:   4    -0.242189230214E+03    0.22701E-04   -0.81478E-04 16295   0.586E-02    0.736E-02
RMM:   5    -0.242189181342E+03    0.48872E-04   -0.40601E-04 16484   0.396E-02    0.538E-02
RMM:   6    -0.242189222523E+03   -0.41181E-04   -0.66231E-05 16407   0.187E-02    0.438E-02
RMM:   7    -0.242189290053E+03   -0.67530E-04   -0.90373E-05 16237   0.192E-02    0.270E-02
RMM:   8    -0.242189322413E+03   -0.32360E-04   -0.35695E-05 16221   0.125E-02    0.232E-02
RMM:   9    -0.242189327783E+03   -0.53701E-05   -0.10575E-05 15401   0.636E-03    0.208E-02
RMM:  10    -0.242189328934E+03   -0.11508E-05   -0.57755E-06 13072   0.445E-03    0.166E-02
RMM:  11    -0.242189329221E+03   -0.28794E-06   -0.56266E-06 13969   0.461E-03
  17 F= -.24218933E+03 E0= -.24218321E+03  d E =-.645949E-02
       N       E                     dE             d eps       ncg     rms          rms(c)
DAV:   1    -0.242189452658E+03   -0.12372E-03   -0.23753E-01 16446   0.960E-01    0.790E-02
RMM:   2    -0.242189729635E+03   -0.27698E-03   -0.33150E-03 16220   0.146E-01    0.690E-03
RMM:   3    -0.242189765385E+03   -0.35750E-04   -0.33388E-04 22529   0.410E-02    0.756E-03
RMM:   4    -0.242189767407E+03   -0.20226E-05   -0.15812E-05 11673   0.484E-03    0.743E-03
RMM:   5    -0.242189767516E+03   -0.10846E-06   -0.16680E-06  9484   0.264E-03
  18 F= -.24218977E+03 E0= -.24218364E+03  d E =-.689778E-02
       N       E                     dE             d eps       ncg     rms          rms(c)
DAV:   1    -0.242192723815E+03   -0.29564E-02   -0.67612E-01 16196   0.161E+00    0.122E-01
RMM:   2    -0.242193711530E+03   -0.98771E-03   -0.10460E-02 16218   0.253E-01    0.840E-02
RMM:   3    -0.242193764654E+03   -0.53124E-04   -0.10470E-03 21719   0.765E-02    0.764E-02
RMM:   4    -0.242193694442E+03    0.70211E-04   -0.26684E-04 16918   0.286E-02    0.449E-02
RMM:   5    -0.242193660012E+03    0.34430E-04   -0.21421E-04 16238   0.271E-02    0.350E-02
RMM:   6    -0.242193675903E+03   -0.15891E-04   -0.33455E-05 16274   0.124E-02    0.255E-02
RMM:   7    -0.242193679818E+03   -0.39145E-05   -0.21626E-05 16164   0.910E-03    0.175E-02
RMM:   8    -0.242193677707E+03    0.21110E-05   -0.80735E-06 15214   0.627E-03    0.153E-02
RMM:   9    -0.242193678519E+03   -0.81188E-06   -0.43987E-06 11833   0.435E-03
  19 F= -.24219368E+03 E0= -.24218752E+03  d E =-.391100E-02
