       N       E                     dE             d eps       ncg     rms          rms(c)
DAV:   1     0.354500449673E+04    0.35450E+04   -0.14252E+05  4792   0.117E+03
DAV:   2     0.200933874393E+03   -0.33441E+04   -0.30721E+04  4972   0.448E+02
DAV:   3    -0.231208281369E+03   -0.43214E+03   -0.40269E+03  6456   0.131E+02
DAV:   4    -0.265568514136E+03   -0.34360E+02   -0.30910E+02  6976   0.378E+01
DAV:   5    -0.266769045405E+03   -0.12005E+01   -0.11656E+01  6552   0.604E+00    0.281E+01
RMM:   6    -0.257201995521E+03    0.95670E+01   -0.16320E+01  5353   0.751E+00    0.210E+01
RMM:   7    -0.255882602962E+03    0.13194E+01   -0.17199E+01  5155   0.796E+00    0.219E+01
RMM:   8    -0.255620190800E+03    0.26241E+00   -0.14385E+01  4915   0.933E+00    0.211E+01
RMM:   9    -0.244962407781E+03    0.10658E+02   -0.51245E+00  5248   0.422E+00    0.114E+01
RMM:  10    -0.242515466869E+03    0.24469E+01   -0.24297E+00  4770   0.419E+00    0.478E+00
RMM:  11    -0.242358909245E+03    0.15656E+00   -0.13096E+00  5257   0.229E+00    0.271E+00
RMM:  12    -0.242398885203E+03   -0.39976E-01   -0.30965E-01  5589   0.117E+00    0.222E+00
RMM:  13    -0.242402657253E+03   -0.37720E-02   -0.96515E-02  4948   0.591E-01    0.152E+00
RMM:  14    -0.242379443879E+03    0.23213E-01   -0.10149E-01  4789   0.745E-01    0.935E-01
RMM:  15    -0.242371726327E+03    0.77176E-02   -0.27056E-02  5593   0.284E-01    0.622E-01
RMM:  16    -0.242375309220E+03   -0.35829E-02   -0.10631E-02  4825   0.197E-01    0.440E-01
RMM:  17    -0.242378040190E+03   -0.27310E-02   -0.10191E-02  4847   0.192E-01    0.316E-01
RMM:  18    -0.242378473101E+03   -0.43291E-03   -0.47613E-03  4798   0.154E-01    0.196E-01
RMM:  19    -0.242378926957E+03   -0.45386E-03   -0.28308E-03  4975   0.105E-01    0.146E-01
RMM:  20    -0.242378758020E+03    0.16894E-03   -0.10557E-03  4692   0.671E-02    0.992E-02
RMM:  21    -0.242378524726E+03    0.23329E-03   -0.63580E-04  3824   0.528E-02    0.587E-02
RMM:  22    -0.242378424398E+03    0.10033E-03   -0.43851E-04  3352   0.444E-02    0.321E-02
RMM:  23    -0.242378456487E+03   -0.32089E-04   -0.27513E-04  2962   0.352E-02
   1 F= -.24237846E+03 E0= -.24237658E+03  d E =-.751164E-02
       N       E                     dE             d eps       ncg     rms          rms(c)
DAV:   1    -0.242373017839E+03    0.54066E-02   -0.53642E-01  5082   0.140E+00    0.121E-01
RMM:   2    -0.242373976418E+03   -0.95858E-03   -0.95308E-03  4618   0.175E-01    0.112E-01
RMM:   3    -0.242373950742E+03    0.25676E-04   -0.54107E-04  3231   0.626E-02
   2 F= -.24237395E+03 E0= -.24237213E+03  d E =-.729749E-02
       N       E                     dE             d eps       ncg     rms          rms(c)
DAV:   1    -0.242372978047E+03    0.99837E-03   -0.21860E+00  4884   0.283E+00    0.241E-01
RMM:   2    -0.242374790581E+03   -0.18125E-02   -0.38442E-02  4762   0.349E-01    0.759E-02
RMM:   3    -0.242375021374E+03   -0.23079E-03   -0.19649E-03  4284   0.123E-01    0.320E-02
RMM:   4    -0.242375124296E+03   -0.10292E-03   -0.42879E-04  3176   0.381E-02    0.207E-02
RMM:   5    -0.242375278937E+03   -0.15464E-03   -0.15314E-04  2740   0.288E-02    0.134E-02
RMM:   6    -0.242375369397E+03   -0.90461E-04   -0.72321E-05  2660   0.228E-02
   3 F= -.24237537E+03 E0= -.24237355E+03  d E =-.725928E-02
       N       E                     dE             d eps       ncg     rms          rms(c)
DAV:   1    -0.242372410888E+03    0.28680E-02   -0.10929E+00  4876   0.198E+00    0.177E-01
RMM:   2    -0.242373553474E+03   -0.11426E-02   -0.16201E-02  4644   0.224E-01    0.123E-01
RMM:   3    -0.242373466974E+03    0.86500E-04   -0.82699E-04  3403   0.746E-02
   4 F= -.24237347E+03 E0= -.24237162E+03  d E =-.738677E-02
       N       E                     dE             d eps       ncg     rms          rms(c)
DAV:   1    -0.242370962492E+03    0.25910E-02   -0.22445E+00  4820   0.279E+00    0.249E-01
RMM:   2    -0.242372593429E+03   -0.16309E-02   -0.32084E-02  4730   0.310E-01    0.448E-02
RMM:   3    -0.242372568168E+03    0.25261E-04   -0.14104E-03  3830   0.941E-02    0.299E-02
RMM:   4    -0.242372592504E+03   -0.24336E-04   -0.29996E-04  2975   0.342E-02
   5 F= -.24237259E+03 E0= -.24237076E+03  d E =-.731235E-02
       N       E                     dE             d eps       ncg     rms          rms(c)
DAV:   1    -0.242373283617E+03   -0.71545E-03   -0.10777E+00  4808   0.197E+00    0.176E-01
RMM:   2    -0.242374487269E+03   -0.12037E-02   -0.15917E-02  4664   0.234E-01    0.122E-01
RMM:   3    -0.242374278940E+03    0.20833E-03   -0.84783E-04  3551   0.776E-02    0.826E-02
RMM:   4    -0.242374294627E+03   -0.15686E-04   -0.84041E-04  3732   0.508E-02
   6 F= -.24237429E+03 E0= -.24237247E+03  d E =-.729771E-02
       N       E                     dE             d eps       ncg     rms          rms(c)
DAV:   1    -0.242373011721E+03    0.12672E-02   -0.21463E+00  4766   0.276E+00    0.270E-01
RMM:   2    -0.242374127375E+03   -0.11157E-02   -0.29539E-02  4729   0.304E-01    0.340E-02
RMM:   3    -0.242374252557E+03   -0.12518E-03   -0.14309E-03  3938   0.100E-01    0.267E-02
RMM:   4    -0.242374268128E+03   -0.15571E-04   -0.29118E-04  2923   0.330E-02
   7 F= -.24237427E+03 E0= -.24237245E+03  d E =-.729151E-02
       N       E                     dE             d eps       ncg     rms          rms(c)
DAV:   1    -0.242371330426E+03    0.29221E-02   -0.11359E+00  4784   0.205E+00    0.183E-01
RMM:   2    -0.242372908614E+03   -0.15782E-02   -0.21779E-02  4710   0.263E-01    0.115E-01
RMM:   3    -0.242372905946E+03    0.26675E-05   -0.10721E-03  3624   0.887E-02    0.987E-02
RMM:   4    -0.242372615011E+03    0.29094E-03   -0.10195E-03  3901   0.565E-02    0.287E-02
RMM:   5    -0.242372598243E+03    0.16768E-04   -0.97438E-05  2641   0.283E-02
   8 F= -.24237260E+03 E0= -.24237076E+03  d E =-.735282E-02
       N       E                     dE             d eps       ncg     rms          rms(c)
DAV:   1    -0.242372637345E+03   -0.22334E-04   -0.21838E+00  4760   0.281E+00    0.246E-01
RMM:   2    -0.242374376539E+03   -0.17392E-02   -0.31702E-02  4749   0.339E-01    0.357E-02
RMM:   3    -0.242374544246E+03   -0.16771E-03   -0.16418E-03  4100   0.114E-01    0.263E-02
RMM:   4    -0.242374591605E+03   -0.47359E-04   -0.35421E-04  3037   0.346E-02
   9 F= -.24237459E+03 E0= -.24237279E+03  d E =-.721462E-02
       N       E                     dE             d eps       ncg     rms          rms(c)
DAV:   1    -0.242374090334E+03    0.45391E-03   -0.10743E+00  4778   0.198E+00    0.177E-01
RMM:   2    -0.242375144191E+03   -0.10539E-02   -0.16385E-02  4705   0.245E-01    0.115E-01
RMM:   3    -0.242375107304E+03    0.36887E-04   -0.10408E-03  3679   0.844E-02    0.103E-01
RMM:   4    -0.242375017833E+03    0.89471E-04   -0.86912E-04  3582   0.494E-02
  10 F= -.24237502E+03 E0= -.24237314E+03  d E =-.750241E-02
       N       E                     dE             d eps       ncg     rms          rms(c)
DAV:   1    -0.242372382268E+03    0.27250E-02   -0.21402E+00  4760   0.280E+00    0.239E-01
RMM:   2    -0.242374464000E+03   -0.20817E-02   -0.35047E-02  4756   0.356E-01    0.640E-02
RMM:   3    -0.242374602414E+03   -0.13841E-03   -0.21258E-03  4239   0.127E-01    0.488E-02
RMM:   4    -0.242374589281E+03    0.13133E-04   -0.60662E-04  3336   0.427E-02
  11 F= -.24237459E+03 E0= -.24237281E+03  d E =-.710155E-02
       N       E                     dE             d eps       ncg     rms          rms(c)
DAV:   1    -0.242375995149E+03   -0.13927E-02   -0.10551E+00  4760   0.198E+00    0.172E-01
RMM:   2    -0.242377044424E+03   -0.10493E-02   -0.15806E-02  4710   0.258E-01    0.102E-01
RMM:   3    -0.242377077608E+03   -0.33184E-04   -0.14559E-03  4224   0.918E-02    0.653E-02
RMM:   4    -0.242377019242E+03    0.58365E-04   -0.79936E-04  3392   0.496E-02
  12 F= -.24237702E+03 E0= -.24237516E+03  d E =-.744582E-02
       N       E                     dE             d eps       ncg     rms          rms(c)
DAV:   1    -0.242374118105E+03    0.29595E-02   -0.20411E+00  4760   0.286E+00    0.248E-01
RMM:   2    -0.242375554234E+03   -0.14361E-02   -0.27781E-02  4759   0.382E-01    0.476E-02
RMM:   3    -0.242375701177E+03   -0.14694E-03   -0.20090E-03  4680   0.109E-01    0.405E-02
RMM:   4    -0.242375711026E+03   -0.98493E-05   -0.23062E-04  2881   0.300E-02
  13 F= -.24237571E+03 E0= -.24237390E+03  d E =-.724942E-02
       N       E                     dE             d eps       ncg     rms          rms(c)
DAV:   1    -0.242370820175E+03    0.48810E-02   -0.10541E+00  4760   0.207E+00    0.169E-01
RMM:   2    -0.242372578140E+03   -0.17580E-02   -0.22279E-02  4760   0.286E-01    0.118E-01
RMM:   3    -0.242372654020E+03   -0.75880E-04   -0.13673E-03  3881   0.989E-02    0.115E-01
RMM:   4    -0.242372423542E+03    0.23048E-03   -0.14127E-03  3763   0.593E-02    0.656E-02
RMM:   5    -0.242372484562E+03   -0.61020E-04   -0.59629E-04  3195   0.489E-02
  14 F= -.24237248E+03 E0= -.24237061E+03  d E =-.749708E-02
       N       E                     dE             d eps       ncg     rms          rms(c)
DAV:   1    -0.242372247808E+03    0.17573E-03   -0.21827E+00  4760   0.278E+00    0.257E-01
RMM:   2    -0.242374421839E+03   -0.21740E-02   -0.40931E-02  4758   0.358E-01    0.419E-02
RMM:   3    -0.242374682845E+03   -0.26101E-03   -0.26186E-03  4164   0.136E-01    0.285E-02
RMM:   4    -0.242374731898E+03   -0.49054E-04   -0.54136E-04  3218   0.393E-02
  15 F= -.24237473E+03 E0= -.24237295E+03  d E =-.712827E-02
       N       E                     dE             d eps       ncg     rms          rms(c)
DAV:   1    -0.242372510188E+03    0.21727E-02   -0.10994E+00  4760   0.193E+00    0.201E-01
RMM:   2    -0.242373501019E+03   -0.99083E-03   -0.20669E-02  4721   0.263E-01    0.116E-01
RMM:   3    -0.242373451601E+03    0.49417E-04   -0.14044E-03  3786   0.102E-01    0.797E-02
RMM:   4    -0.242373426502E+03    0.25100E-04   -0.88454E-04  3469   0.484E-02
  16 F= -.24237343E+03 E0= -.24237157E+03  d E =-.741611E-02
       N       E                     dE             d eps       ncg     rms          rms(c)
DAV:   1    -0.242371731073E+03    0.17205E-02   -0.21706E+00  4760   0.278E+00    0.245E-01
RMM:   2    -0.242374408184E+03   -0.26771E-02   -0.39793E-02  4748   0.363E-01    0.510E-02
RMM:   3    -0.242374646354E+03   -0.23817E-03   -0.26530E-03  4199   0.136E-01    0.275E-02
RMM:   4    -0.242374690082E+03   -0.43728E-04   -0.56678E-04  3259   0.414E-02
  17 F= -.24237469E+03 E0= -.24237288E+03  d E =-.722558E-02
       N       E                     dE             d eps       ncg     rms          rms(c)
DAV:   1    -0.242376189010E+03   -0.15427E-02   -0.10042E+00  4760   0.194E+00    0.189E-01
RMM:   2    -0.242377284873E+03   -0.10959E-02   -0.15880E-02  4718   0.237E-01    0.116E-01
RMM:   3    -0.242377259290E+03    0.25584E-04   -0.17661E-03  4160   0.949E-02    0.608E-02
RMM:   4    -0.242377211605E+03    0.47685E-04   -0.50195E-04  3143   0.412E-02
  18 F= -.24237721E+03 E0= -.24237543E+03  d E =-.712152E-02
       N       E                     dE             d eps       ncg     rms          rms(c)
DAV:   1    -0.242374875186E+03    0.23841E-02   -0.19323E+00  4760   0.270E+00    0.269E-01
RMM:   2    -0.242376863426E+03   -0.19882E-02   -0.28970E-02  4750   0.333E-01    0.455E-02
RMM:   3    -0.242377023508E+03   -0.16008E-03   -0.20143E-03  4365   0.117E-01    0.293E-02
RMM:   4    -0.242377044833E+03   -0.21325E-04   -0.35716E-04  3023   0.336E-02
  19 F= -.24237704E+03 E0= -.24237519E+03  d E =-.740020E-02
       N       E                     dE             d eps       ncg     rms          rms(c)
DAV:   1    -0.242372370458E+03    0.46530E-02   -0.10230E+00  4760   0.204E+00    0.172E-01
RMM:   2    -0.242374076566E+03   -0.17061E-02   -0.19564E-02  4733   0.261E-01    0.116E-01
RMM:   3    -0.242374132661E+03   -0.56095E-04   -0.11678E-03  3731   0.932E-02    0.108E-01
RMM:   4    -0.242373905708E+03    0.22695E-03   -0.13112E-03  3798   0.564E-02    0.390E-02
RMM:   5    -0.242373902400E+03    0.33078E-05   -0.12477E-04  2685   0.315E-02
  20 F= -.24237390E+03 E0= -.24237209E+03  d E =-.724448E-02
       N       E                     dE             d eps       ncg     rms          rms(c)
DAV:   1    -0.242371807641E+03    0.20981E-02   -0.21762E+00  4760   0.287E+00    0.241E-01
RMM:   2    -0.242373750120E+03   -0.19425E-02   -0.31237E-02  4748   0.345E-01    0.361E-02
RMM:   3    -0.242373928088E+03   -0.17797E-03   -0.18097E-03  4141   0.120E-01    0.237E-02
RMM:   4    -0.242373964664E+03   -0.36576E-04   -0.44820E-04  3151   0.378E-02
  21 F= -.24237396E+03 E0= -.24237214E+03  d E =-.729222E-02
       N       E                     dE             d eps       ncg     rms          rms(c)
DAV:   1    -0.242373828520E+03    0.99569E-04   -0.10692E+00  4760   0.202E+00    0.169E-01
RMM:   2    -0.242375039600E+03   -0.12111E-02   -0.16997E-02  4717   0.249E-01    0.114E-01
RMM:   3    -0.242374944515E+03    0.95085E-04   -0.11100E-03  3865   0.935E-02    0.900E-02
RMM:   4    -0.242374783051E+03    0.16146E-03   -0.10385E-03  3701   0.502E-02    0.380E-02
RMM:   5    -0.242374828285E+03   -0.45234E-04   -0.16638E-04  2786   0.335E-02
  22 F= -.24237483E+03 E0= -.24237296E+03  d E =-.745349E-02
       N       E                     dE             d eps       ncg     rms          rms(c)
DAV:   1    -0.242371992265E+03    0.27908E-02   -0.21581E+00  4760   0.288E+00    0.243E-01
RMM:   2    -0.242373638306E+03   -0.16460E-02   -0.32011E-02  4747   0.356E-01    0.331E-02
RMM:   3    -0.242373826541E+03   -0.18823E-03   -0.19818E-03  4281   0.125E-01    0.205E-02
RMM:   4    -0.242373865344E+03   -0.38804E-04   -0.41525E-04  3144   0.371E-02
  23 F= -.24237387E+03 E0= -.24237208E+03  d E =-.712539E-02
       N       E                     dE             d eps       ncg     rms          rms(c)
DAV:   1    -0.242376903890E+03   -0.30773E-02   -0.10617E+00  4760   0.202E+00    0.177E-01
RMM:   2    -0.242377949054E+03   -0.10452E-02   -0.15650E-02  4737   0.271E-01    0.104E-01
RMM:   3    -0.242377881870E+03    0.67184E-04   -0.12858E-03  4103   0.875E-02    0.591E-02
RMM:   4    -0.242377823248E+03    0.58623E-04   -0.39570E-04  3062   0.437E-02
  24 F= -.24237782E+03 E0= -.24237603E+03  d E =-.718328E-02
       N       E                     dE             d eps       ncg     rms          rms(c)
DAV:   1    -0.242373391652E+03    0.44902E-02   -0.20439E+00  4760   0.292E+00    0.251E-01
RMM:   2    -0.242374718701E+03   -0.13270E-02   -0.28309E-02  4759   0.402E-01    0.295E-02
RMM:   3    -0.242374916276E+03   -0.19757E-03   -0.21638E-03  4839   0.108E-01    0.211E-02
RMM:   4    -0.242374937145E+03   -0.20869E-04   -0.22425E-04  2883   0.301E-02
  25 F= -.24237494E+03 E0= -.24237310E+03  d E =-.736595E-02
       N       E                     dE             d eps       ncg     rms          rms(c)
DAV:   1    -0.242371427039E+03    0.34892E-02   -0.10617E+00  4760   0.206E+00    0.183E-01
RMM:   2    -0.242373057093E+03   -0.16301E-02   -0.22063E-02  4747   0.300E-01    0.136E-01
RMM:   3    -0.242373008262E+03    0.48831E-04   -0.14805E-03  4150   0.981E-02    0.121E-01
RMM:   4    -0.242372675629E+03    0.33263E-03   -0.14267E-03  4106   0.627E-02    0.677E-02
RMM:   5    -0.242372599144E+03    0.76486E-04   -0.38621E-04  3009   0.391E-02
  26 F= -.24237260E+03 E0= -.24237079E+03  d E =-.723492E-02
       N       E                     dE             d eps       ncg     rms          rms(c)
DAV:   1    -0.242372594536E+03    0.81094E-04   -0.22214E+00  4772   0.274E+00    0.285E-01
RMM:   2    -0.242374221583E+03   -0.16270E-02   -0.42416E-02  4759   0.387E-01    0.624E-02
RMM:   3    -0.242374255144E+03   -0.33561E-04   -0.25547E-03  4418   0.140E-01    0.376E-02
RMM:   4    -0.242374258071E+03   -0.29273E-05   -0.62588E-04  3364   0.433E-02
  27 F= -.24237426E+03 E0= -.24237242E+03  d E =-.735757E-02
       N       E                     dE             d eps       ncg     rms          rms(c)
DAV:   1    -0.242372642604E+03    0.16125E-02   -0.11089E+00  4772   0.194E+00    0.193E-01
RMM:   2    -0.242373674588E+03   -0.10320E-02   -0.18420E-02  4707   0.246E-01    0.122E-01
RMM:   3    -0.242373635166E+03    0.39421E-04   -0.11636E-03  3607   0.880E-02    0.843E-02
RMM:   4    -0.242373538853E+03    0.96314E-04   -0.90877E-04  3541   0.491E-02
  28 F= -.24237354E+03 E0= -.24237172E+03  d E =-.728168E-02
       N       E                     dE             d eps       ncg     rms          rms(c)
DAV:   1    -0.242370259063E+03    0.33761E-02   -0.22170E+00  4760   0.276E+00    0.257E-01
RMM:   2    -0.242372113024E+03   -0.18540E-02   -0.31562E-02  4757   0.324E-01    0.400E-02
RMM:   3    -0.242372281457E+03   -0.16843E-03   -0.18560E-03  4072   0.112E-01    0.246E-02
RMM:   4    -0.242372332235E+03   -0.50778E-04   -0.40828E-04  3078   0.385E-02
  29 F= -.24237233E+03 E0= -.24237051E+03  d E =-.730637E-02
       N       E                     dE             d eps       ncg     rms          rms(c)
DAV:   1    -0.242377394432E+03   -0.51130E-02   -0.10274E+00  4760   0.198E+00    0.182E-01
RMM:   2    -0.242378246823E+03   -0.85239E-03   -0.11970E-02  4723   0.222E-01    0.114E-01
RMM:   3    -0.242378139916E+03    0.10691E-03   -0.12593E-03  4055   0.825E-02    0.658E-02
RMM:   4    -0.242378083296E+03    0.56620E-04   -0.35898E-04  2974   0.373E-02
  30 F= -.24237808E+03 E0= -.24237630E+03  d E =-.715048E-02
       N       E                     dE             d eps       ncg     rms          rms(c)
DAV:   1    -0.242375103426E+03    0.30365E-02   -0.19960E+00  4760   0.276E+00    0.267E-01
RMM:   2    -0.242376406861E+03   -0.13034E-02   -0.24549E-02  4755   0.335E-01    0.400E-02
RMM:   3    -0.242376481594E+03   -0.74733E-04   -0.17655E-03  4470   0.104E-01    0.292E-02
RMM:   4    -0.242376488859E+03   -0.72651E-05   -0.25729E-04  2920   0.328E-02
  31 F= -.24237649E+03 E0= -.24237463E+03  d E =-.742593E-02
       N       E                     dE             d eps       ncg     rms          rms(c)
DAV:   1    -0.242373344583E+03    0.31370E-02   -0.10230E+00  4760   0.200E+00    0.173E-01
RMM:   2    -0.242374833055E+03   -0.14885E-02   -0.19631E-02  4788   0.268E-01    0.121E-01
RMM:   3    -0.242374829814E+03    0.32414E-05   -0.12244E-03  3943   0.925E-02    0.102E-01
RMM:   4    -0.242374710286E+03    0.11953E-03   -0.95588E-04  3797   0.529E-02    0.412E-02
RMM:   5    -0.242374700090E+03    0.10196E-04   -0.13031E-04  2732   0.287E-02
  32 F= -.24237470E+03 E0= -.24237291E+03  d E =-.715661E-02
       N       E                     dE             d eps       ncg     rms          rms(c)
DAV:   1    -0.242371557189E+03    0.31531E-02   -0.21631E+00  4760   0.278E+00    0.267E-01
RMM:   2    -0.242373035868E+03   -0.14787E-02   -0.34624E-02  4758   0.355E-01    0.441E-02
RMM:   3    -0.242373221886E+03   -0.18602E-03   -0.21668E-03  4347   0.127E-01    0.281E-02
RMM:   4    -0.242373254358E+03   -0.32472E-04   -0.47538E-04  3214   0.383E-02
  33 F= -.24237325E+03 E0= -.24237140E+03  d E =-.740249E-02
       N       E                     dE             d eps       ncg     rms          rms(c)
DAV:   1    -0.242372587764E+03    0.63412E-03   -0.10875E+00  4760   0.200E+00    0.191E-01
RMM:   2    -0.242373436212E+03   -0.84845E-03   -0.17903E-02  4741   0.253E-01    0.111E-01
RMM:   3    -0.242373413856E+03    0.22356E-04   -0.11232E-03  3823   0.896E-02    0.953E-02
RMM:   4    -0.242373344484E+03    0.69372E-04   -0.45968E-04  3114   0.414E-02
  34 F= -.24237334E+03 E0= -.24237153E+03  d E =-.723925E-02
       N       E                     dE             d eps       ncg     rms          rms(c)
DAV:   1    -0.242372732490E+03    0.68137E-03   -0.21736E+00  4760   0.283E+00    0.233E-01
RMM:   2    -0.242375163449E+03   -0.24310E-02   -0.39044E-02  4757   0.378E-01    0.588E-02
RMM:   3    -0.242375386505E+03   -0.22306E-03   -0.24391E-03  4441   0.136E-01    0.528E-02
RMM:   4    -0.242375421333E+03   -0.34828E-04   -0.48545E-04  3228   0.393E-02
  35 F= -.24237542E+03 E0= -.24237360E+03  d E =-.726750E-02
       N       E                     dE             d eps       ncg     rms          rms(c)
DAV:   1    -0.242376153444E+03   -0.76694E-03   -0.10336E+00  4760   0.204E+00    0.174E-01
RMM:   2    -0.242377060941E+03   -0.90750E-03   -0.16127E-02  4747   0.263E-01    0.111E-01
RMM:   3    -0.242377057651E+03    0.32894E-05   -0.14180E-03  4172   0.889E-02    0.666E-02
RMM:   4    -0.242377084375E+03   -0.26724E-04   -0.50243E-04  3227   0.479E-02
  36 F= -.24237708E+03 E0= -.24237529E+03  d E =-.718803E-02
       N       E                     dE             d eps       ncg     rms          rms(c)
DAV:   1    -0.242374531522E+03    0.25261E-02   -0.20070E+00  4760   0.283E+00    0.253E-01
RMM:   2    -0.242376097713E+03   -0.15662E-02   -0.27016E-02  4755   0.354E-01    0.329E-02
RMM:   3    -0.242376280673E+03   -0.18296E-03   -0.19455E-03  4615   0.108E-01    0.217E-02
RMM:   4    -0.242376299957E+03   -0.19285E-04   -0.27036E-04  2920   0.317E-02
  37 F= -.24237630E+03 E0= -.24237446E+03  d E =-.736670E-02
       N       E                     dE             d eps       ncg     rms          rms(c)
DAV:   1    -0.242377496133E+03   -0.12155E-02   -0.58349E-01  4766   0.152E+00    0.150E-01
RMM:   2    -0.242378008033E+03   -0.51190E-03   -0.80132E-03  4668   0.181E-01    0.599E-02
RMM:   3    -0.242378035872E+03   -0.27839E-04   -0.55965E-04  3277   0.618E-02
  38 F= -.24237804E+03 E0= -.24237622E+03  d E =-.727468E-02
       N       E                     dE             d eps       ncg     rms          rms(c)
DAV:   1    -0.242378643212E+03   -0.63518E-03   -0.33006E-01  4842   0.912E-01    0.164E-01
RMM:   2    -0.242378833678E+03   -0.19047E-03   -0.30279E-03  4205   0.973E-02    0.256E-02
RMM:   3    -0.242378881246E+03   -0.47568E-04   -0.15951E-04  2772   0.332E-02
  39 F= -.24237888E+03 E0= -.24237706E+03  d E =-.727152E-02
       N       E                     dE             d eps       ncg     rms          rms(c)
DAV:   1    -0.242375943062E+03    0.28906E-02   -0.17440E-01  4916   0.667E-01    0.169E-01
RMM:   2    -0.242375906371E+03    0.36691E-04   -0.36229E-03  4258   0.109E-01    0.103E-01
RMM:   3    -0.242375732806E+03    0.17357E-03   -0.11763E-03  3600   0.528E-02    0.618E-02
RMM:   4    -0.242375715380E+03    0.17426E-04   -0.19492E-04  2820   0.356E-02
  40 F= -.24237572E+03 E0= -.24237390E+03  d E =-.726718E-02
       N       E                     dE             d eps       ncg     rms          rms(c)
DAV:   1    -0.242376735084E+03   -0.10023E-02   -0.36937E-01  4902   0.980E-01    0.280E-01
RMM:   2    -0.242375698130E+03    0.10370E-02   -0.12896E-02  4657   0.182E-01    0.388E-02
RMM:   3    -0.242375822439E+03   -0.12431E-03   -0.75005E-04  3430   0.625E-02    0.280E-02
RMM:   4    -0.242375830653E+03   -0.82143E-05   -0.12738E-04  2682   0.291E-02
  41 F= -.24237583E+03 E0= -.24237400E+03  d E =-.732603E-02
       N       E                     dE             d eps       ncg     rms          rms(c)
DAV:   1    -0.242378368705E+03   -0.25463E-02   -0.17364E-01  4858   0.658E-01    0.161E-01
RMM:   2    -0.242378167311E+03    0.20139E-03   -0.33116E-03  4022   0.950E-02    0.619E-02
RMM:   3    -0.242378179893E+03   -0.12582E-04   -0.22576E-04  2861   0.381E-02
  42 F= -.24237818E+03 E0= -.24237638E+03  d E =-.721120E-02
       N       E                     dE             d eps       ncg     rms          rms(c)
DAV:   1    -0.242378573700E+03   -0.40639E-03   -0.32712E-01  4836   0.908E-01    0.162E-01
RMM:   2    -0.242378836999E+03   -0.26330E-03   -0.30029E-03  3940   0.923E-02    0.264E-02
RMM:   3    -0.242378839124E+03   -0.21243E-05   -0.14882E-04  2719   0.338E-02
  43 F= -.24237884E+03 E0= -.24237701E+03  d E =-.730328E-02
       N       E                     dE             d eps       ncg     rms          rms(c)
DAV:   1    -0.242376555916E+03    0.22811E-02   -0.16993E-01  4832   0.719E-01    0.152E-01
RMM:   2    -0.242376549466E+03    0.64498E-05   -0.36186E-03  4374   0.105E-01    0.909E-02
RMM:   3    -0.242376343148E+03    0.20632E-03   -0.73799E-04  3395   0.475E-02    0.560E-02
RMM:   4    -0.242376437181E+03   -0.94033E-04   -0.38914E-04  3033   0.402E-02
  44 F= -.24237644E+03 E0= -.24237463E+03  d E =-.721635E-02
       N       E                     dE             d eps       ncg     rms          rms(c)
DAV:   1    -0.242377214560E+03   -0.87141E-03   -0.36050E-01  4798   0.997E-01    0.264E-01
RMM:   2    -0.242376322917E+03    0.89164E-03   -0.93089E-03  4558   0.159E-01    0.301E-02
RMM:   3    -0.242376360650E+03   -0.37733E-04   -0.52251E-04  3194   0.551E-02
  45 F= -.24237636E+03 E0= -.24237453E+03  d E =-.731306E-02
       N       E                     dE             d eps       ncg     rms          rms(c)
DAV:   1    -0.242378953038E+03   -0.26301E-02   -0.17612E-01  4944   0.693E-01    0.182E-01
RMM:   2    -0.242378490943E+03    0.46210E-03   -0.40707E-03  4287   0.108E-01    0.642E-02
RMM:   3    -0.242378498725E+03   -0.77820E-05   -0.48844E-04  3117   0.431E-02
  46 F= -.24237850E+03 E0= -.24237669E+03  d E =-.724032E-02
       N       E                     dE             d eps       ncg     rms          rms(c)
DAV:   1    -0.242378083600E+03    0.40734E-03   -0.33232E-01  4766   0.948E-01    0.175E-01
RMM:   2    -0.242378162166E+03   -0.78566E-04   -0.34898E-03  4257   0.103E-01    0.308E-02
RMM:   3    -0.242378170583E+03   -0.84165E-05   -0.19508E-04  2785   0.384E-02
  47 F= -.24237817E+03 E0= -.24237634E+03  d E =-.730747E-02
       N       E                     dE             d eps       ncg     rms          rms(c)
DAV:   1    -0.242378450103E+03   -0.28794E-03   -0.16737E-01  4872   0.674E-01    0.145E-01
RMM:   2    -0.242378403332E+03    0.46771E-04   -0.21076E-03  3887   0.841E-02    0.721E-02
RMM:   3    -0.242378375608E+03    0.27723E-04   -0.34745E-04  2964   0.404E-02
  48 F= -.24237838E+03 E0= -.24237655E+03  d E =-.730145E-02
       N       E                     dE             d eps       ncg     rms          rms(c)
DAV:   1    -0.242377808684E+03    0.59465E-03   -0.33083E-01  4896   0.959E-01    0.200E-01
RMM:   2    -0.242377753343E+03    0.55341E-04   -0.45393E-03  4456   0.123E-01    0.247E-02
RMM:   3    -0.242377800473E+03   -0.47130E-04   -0.22715E-04  2838   0.390E-02
  49 F= -.24237780E+03 E0= -.24237598E+03  d E =-.726489E-02
       N       E                     dE             d eps       ncg     rms          rms(c)
DAV:   1    -0.242376890128E+03    0.86322E-03   -0.17026E-01  4906   0.730E-01    0.156E-01
RMM:   2    -0.242376910468E+03   -0.20340E-04   -0.33147E-03  4261   0.107E-01    0.886E-02
RMM:   3    -0.242376752545E+03    0.15792E-03   -0.57721E-04  3226   0.465E-02    0.471E-02
RMM:   4    -0.242376737450E+03    0.15095E-04   -0.18051E-04  2769   0.318E-02
  50 F= -.24237674E+03 E0= -.24237492E+03  d E =-.726064E-02
       N       E                     dE             d eps       ncg     rms          rms(c)
DAV:   1    -0.242377448731E+03   -0.69619E-03   -0.35150E-01  4760   0.966E-01    0.249E-01
RMM:   2    -0.242376687544E+03    0.76119E-03   -0.80582E-03  4607   0.151E-01    0.230E-02
RMM:   3    -0.242376726028E+03   -0.38484E-04   -0.35595E-04  2984   0.516E-02
  51 F= -.24237673E+03 E0= -.24237492E+03  d E =-.724270E-02
       N       E                     dE             d eps       ncg     rms          rms(c)
DAV:   1    -0.242377483710E+03   -0.79617E-03   -0.16385E-01  4822   0.662E-01    0.117E-01
RMM:   2    -0.242377569567E+03   -0.85857E-04   -0.14440E-03  3830   0.696E-02    0.643E-02
RMM:   3    -0.242377562643E+03    0.69240E-05   -0.15908E-04  2756   0.325E-02
  52 F= -.24237756E+03 E0= -.24237577E+03  d E =-.717140E-02
       N       E                     dE             d eps       ncg     rms          rms(c)
DAV:   1    -0.242378008651E+03   -0.43908E-03   -0.34089E-01  4818   0.954E-01    0.209E-01
RMM:   2    -0.242377806253E+03    0.20240E-03   -0.48663E-03  4445   0.123E-01    0.269E-02
RMM:   3    -0.242377835129E+03   -0.28876E-04   -0.22633E-04  2794   0.417E-02
  53 F= -.24237784E+03 E0= -.24237600E+03  d E =-.733733E-02
       N       E                     dE             d eps       ncg     rms          rms(c)
DAV:   1    -0.242377536713E+03    0.26954E-03   -0.17145E-01  4812   0.673E-01    0.161E-01
RMM:   2    -0.242377295334E+03    0.24138E-03   -0.28223E-03  4199   0.969E-02    0.649E-02
RMM:   3    -0.242377191898E+03    0.10344E-03   -0.33794E-04  2996   0.414E-02    0.290E-02
RMM:   4    -0.242377246709E+03   -0.54811E-04   -0.89977E-05  2647   0.254E-02
  54 F= -.24237725E+03 E0= -.24237542E+03  d E =-.730473E-02
       N       E                     dE             d eps       ncg     rms          rms(c)
DAV:   1    -0.242379236540E+03   -0.20446E-02   -0.32641E-01  4796   0.944E-01    0.192E-01
RMM:   2    -0.242379314038E+03   -0.77497E-04   -0.40191E-03  4481   0.114E-01    0.187E-02
RMM:   3    -0.242379327886E+03   -0.13848E-04   -0.19023E-04  2797   0.377E-02
  55 F= -.24237933E+03 E0= -.24237750E+03  d E =-.730365E-02
       N       E                     dE             d eps       ncg     rms          rms(c)
DAV:   1    -0.242378349794E+03    0.96424E-03   -0.16311E-01  4984   0.680E-01    0.125E-01
RMM:   2    -0.242378420732E+03   -0.70938E-04   -0.18628E-03  3894   0.775E-02    0.593E-02
RMM:   3    -0.242378469772E+03   -0.49040E-04   -0.24765E-04  2877   0.381E-02
  56 F= -.24237847E+03 E0= -.24237667E+03  d E =-.719665E-02
       N       E                     dE             d eps       ncg     rms          rms(c)
DAV:   1    -0.242378192177E+03    0.22856E-03   -0.32768E-01  4856   0.866E-01    0.165E-01
RMM:   2    -0.242378244991E+03   -0.52814E-04   -0.28873E-03  4393   0.950E-02    0.198E-02
RMM:   3    -0.242378319103E+03   -0.74112E-04   -0.13956E-04  2752   0.287E-02
  57 F= -.24237832E+03 E0= -.24237649E+03  d E =-.731990E-02
       N       E                     dE             d eps       ncg     rms          rms(c)
DAV:   1    -0.242376054745E+03    0.21902E-02   -0.17441E-01  4870   0.644E-01    0.172E-01
RMM:   2    -0.242375898118E+03    0.15663E-03   -0.30460E-03  3961   0.968E-02    0.105E-01
RMM:   3    -0.242375647533E+03    0.25058E-03   -0.73455E-04  3261   0.466E-02    0.508E-02
RMM:   4    -0.242375780319E+03   -0.13279E-03   -0.39512E-04  3029   0.417E-02    0.288E-02
RMM:   5    -0.242375776634E+03    0.36851E-05   -0.62636E-05  2623   0.241E-02
  58 F= -.24237578E+03 E0= -.24237396E+03  d E =-.727002E-02
       N       E                     dE             d eps       ncg     rms          rms(c)
DAV:   1    -0.242377017330E+03   -0.12370E-02   -0.35583E-01  4888   0.913E-01    0.274E-01
RMM:   2    -0.242375951767E+03    0.10656E-02   -0.96308E-03  4574   0.154E-01    0.205E-02
RMM:   3    -0.242375977770E+03   -0.26003E-04   -0.43872E-04  2991   0.513E-02
  59 F= -.24237598E+03 E0= -.24237417E+03  d E =-.724986E-02
       N       E                     dE             d eps       ncg     rms          rms(c)
DAV:   1    -0.242378061196E+03   -0.21094E-02   -0.16099E-01  4916   0.633E-01    0.136E-01
RMM:   2    -0.242378054608E+03    0.65879E-05   -0.21892E-03  3898   0.844E-02    0.626E-02
RMM:   3    -0.242378033734E+03    0.20874E-04   -0.19105E-04  2807   0.359E-02
  60 F= -.24237803E+03 E0= -.24237621E+03  d E =-.729564E-02
       N       E                     dE             d eps       ncg     rms          rms(c)
DAV:   1    -0.242378731411E+03   -0.67680E-03   -0.31667E-01  4808   0.884E-01    0.192E-01
RMM:   2    -0.242378772449E+03   -0.41038E-04   -0.40345E-03  4243   0.110E-01    0.202E-02
RMM:   3    -0.242378788943E+03   -0.16494E-04   -0.19232E-04  2779   0.387E-02
  61 F= -.24237879E+03 E0= -.24237696E+03  d E =-.730849E-02
       N       E                     dE             d eps       ncg     rms          rms(c)
DAV:   1    -0.242376707599E+03    0.20648E-02   -0.16444E-01  4850   0.676E-01    0.156E-01
RMM:   2    -0.242376705428E+03    0.21711E-05   -0.31267E-03  4214   0.984E-02    0.868E-02
RMM:   3    -0.242376610899E+03    0.94530E-04   -0.52490E-04  3092   0.444E-02
  62 F= -.24237661E+03 E0= -.24237478E+03  d E =-.731687E-02
       N       E                     dE             d eps       ncg     rms          rms(c)
DAV:   1    -0.242377818794E+03   -0.11134E-02   -0.34135E-01  4818   0.919E-01    0.244E-01
RMM:   2    -0.242377100503E+03    0.71829E-03   -0.87828E-03  4671   0.154E-01    0.354E-02
RMM:   3    -0.242377112588E+03   -0.12085E-04   -0.42421E-04  3045   0.530E-02
  63 F= -.24237711E+03 E0= -.24237530E+03  d E =-.725042E-02
       N       E                     dE             d eps       ncg     rms          rms(c)
DAV:   1    -0.242378722967E+03   -0.16225E-02   -0.17001E-01  4842   0.656E-01    0.174E-01
RMM:   2    -0.242378347012E+03    0.37595E-03   -0.35792E-03  4275   0.103E-01    0.620E-02
RMM:   3    -0.242378373551E+03   -0.26538E-04   -0.29648E-04  2885   0.398E-02
  64 F= -.24237837E+03 E0= -.24237656E+03  d E =-.724846E-02
       N       E                     dE             d eps       ncg     rms          rms(c)
DAV:   1    -0.242378146565E+03    0.20045E-03   -0.32555E-01  4766   0.889E-01    0.175E-01
RMM:   2    -0.242378121805E+03    0.24761E-04   -0.37261E-03  4484   0.110E-01    0.208E-02
RMM:   3    -0.242378176340E+03   -0.54535E-04   -0.18786E-04  2806   0.346E-02
  65 F= -.24237818E+03 E0= -.24237635E+03  d E =-.729739E-02
       N       E                     dE             d eps       ncg     rms          rms(c)
DAV:   1    -0.242378168524E+03   -0.46719E-04   -0.15677E-01  4886   0.628E-01    0.115E-01
RMM:   2    -0.242378346862E+03   -0.17834E-03   -0.14891E-03  3817   0.732E-02    0.691E-02
RMM:   3    -0.242378331709E+03    0.15152E-04   -0.19051E-04  2790   0.313E-02
  66 F= -.24237833E+03 E0= -.24237650E+03  d E =-.731848E-02
       N       E                     dE             d eps       ncg     rms          rms(c)
DAV:   1    -0.242377482470E+03    0.86439E-03   -0.32597E-01  4784   0.909E-01    0.207E-01
RMM:   2    -0.242377393060E+03    0.89410E-04   -0.50930E-03  4409   0.124E-01    0.258E-02
RMM:   3    -0.242377397364E+03   -0.43043E-05   -0.22658E-04  2828   0.404E-02
  67 F= -.24237740E+03 E0= -.24237558E+03  d E =-.726278E-02
       N       E                     dE             d eps       ncg     rms          rms(c)
DAV:   1    -0.242377931023E+03   -0.53796E-03   -0.16200E-01  4796   0.697E-01    0.129E-01
RMM:   2    -0.242378000454E+03   -0.69432E-04   -0.21997E-03  4018   0.846E-02    0.573E-02
RMM:   3    -0.242378019590E+03   -0.19136E-04   -0.23206E-04  2841   0.356E-02
  68 F= -.24237802E+03 E0= -.24237618E+03  d E =-.734216E-02
       N       E                     dE             d eps       ncg     rms          rms(c)
DAV:   1    -0.242378802595E+03   -0.80214E-03   -0.32450E-01  4760   0.955E-01    0.158E-01
RMM:   2    -0.242379085779E+03   -0.28318E-03   -0.27891E-03  4178   0.952E-02    0.239E-02
RMM:   3    -0.242379071741E+03    0.14038E-04   -0.13935E-04  2715   0.335E-02
  69 F= -.24237907E+03 E0= -.24237725E+03  d E =-.727249E-02
       N       E                     dE             d eps       ncg     rms          rms(c)
DAV:   1    -0.242378364989E+03    0.72079E-03   -0.16305E-01  4790   0.678E-01    0.114E-01
RMM:   2    -0.242378483519E+03   -0.11853E-03   -0.13615E-03  3693   0.670E-02    0.591E-02
RMM:   3    -0.242378498167E+03   -0.14648E-04   -0.21391E-04  2838   0.329E-02
  70 F= -.24237850E+03 E0= -.24237667E+03  d E =-.732572E-02
       N       E                     dE             d eps       ncg     rms          rms(c)
DAV:   1    -0.242378265893E+03    0.21763E-03   -0.32714E-01  4766   0.956E-01    0.164E-01
RMM:   2    -0.242378459108E+03   -0.19322E-03   -0.34146E-03  4278   0.100E-01    0.236E-02
RMM:   3    -0.242378469997E+03   -0.10888E-04   -0.16306E-04  2781   0.347E-02
  71 F= -.24237847E+03 E0= -.24237664E+03  d E =-.733962E-02
       N       E                     dE             d eps       ncg     rms          rms(c)
DAV:   1    -0.242374983323E+03    0.34758E-02   -0.16707E-01  4876   0.689E-01    0.142E-01
RMM:   2    -0.242375023161E+03   -0.39838E-04   -0.26593E-03  4328   0.968E-02    0.934E-02
RMM:   3    -0.242374810226E+03    0.21293E-03   -0.56272E-04  3201   0.404E-02    0.451E-02
RMM:   4    -0.242374853454E+03   -0.43228E-04   -0.25184E-04  2864   0.366E-02
  72 F= -.24237485E+03 E0= -.24237301E+03  d E =-.736960E-02
       N       E                     dE             d eps       ncg     rms          rms(c)
DAV:   1    -0.242378143430E+03   -0.33332E-02   -0.36172E-01  4894   0.102E+00    0.277E-01
RMM:   2    -0.242377277546E+03    0.86588E-03   -0.13135E-02  4673   0.184E-01    0.220E-02
RMM:   3    -0.242377334079E+03   -0.56533E-04   -0.70944E-04  3465   0.577E-02
  73 F= -.24237733E+03 E0= -.24237551E+03  d E =-.729978E-02
       N       E                     dE             d eps       ncg     rms          rms(c)
DAV:   1    -0.242374298961E+03    0.29786E-02   -0.64083E-01  4824   0.142E+00    0.186E-01
RMM:   2    -0.242374857652E+03   -0.55869E-03   -0.12218E-02  4625   0.188E-01    0.126E-01
RMM:   3    -0.242374725107E+03    0.13255E-03   -0.65846E-04  3188   0.558E-02    0.896E-02
RMM:   4    -0.242374596313E+03    0.12879E-03   -0.78332E-04  3334   0.473E-02    0.259E-02
RMM:   5    -0.242374588045E+03    0.82681E-05   -0.91318E-05  2646   0.271E-02
  74 F= -.24237459E+03 E0= -.24237275E+03  d E =-.733220E-02
       N       E                     dE             d eps       ncg     rms          rms(c)
DAV:   1    -0.242371821432E+03    0.27749E-02   -0.22151E+00  4760   0.253E+00    0.273E-01
RMM:   2    -0.242372612530E+03   -0.79110E-03   -0.28687E-02  4710   0.277E-01    0.324E-02
RMM:   3    -0.242372705500E+03   -0.92970E-04   -0.11027E-03  3424   0.808E-02    0.166E-02
RMM:   4    -0.242372726838E+03   -0.21338E-04   -0.22268E-04  2838   0.310E-02
  75 F= -.24237273E+03 E0= -.24237090E+03  d E =-.728985E-02
       N       E                     dE             d eps       ncg     rms          rms(c)
DAV:   1    -0.242373096213E+03   -0.39071E-03   -0.11231E+00  4760   0.175E+00    0.196E-01
RMM:   2    -0.242373572086E+03   -0.47587E-03   -0.11212E-02  4459   0.179E-01    0.126E-01
RMM:   3    -0.242373352282E+03    0.21980E-03   -0.88907E-04  3289   0.556E-02    0.612E-02
RMM:   4    -0.242373295935E+03    0.56347E-04   -0.32781E-04  2969   0.377E-02
  76 F= -.24237330E+03 E0= -.24237148E+03  d E =-.726433E-02
       N       E                     dE             d eps       ncg     rms          rms(c)
DAV:   1    -0.242372603787E+03    0.74849E-03   -0.22299E+00  4760   0.255E+00    0.271E-01
RMM:   2    -0.242373465991E+03   -0.86220E-03   -0.26774E-02  4687   0.266E-01    0.331E-02
RMM:   3    -0.242373555139E+03   -0.89148E-04   -0.10536E-03  3362   0.754E-02    0.162E-02
RMM:   4    -0.242373574224E+03   -0.19085E-04   -0.22320E-04  2844   0.321E-02
  77 F= -.24237357E+03 E0= -.24237174E+03  d E =-.732183E-02
       N       E                     dE             d eps       ncg     rms          rms(c)
DAV:   1    -0.242373933363E+03   -0.37822E-03   -0.11159E+00  4760   0.179E+00    0.200E-01
RMM:   2    -0.242374420173E+03   -0.48681E-03   -0.13246E-02  4606   0.194E-01    0.128E-01
RMM:   3    -0.242374146544E+03    0.27363E-03   -0.91431E-04  3316   0.583E-02    0.658E-02
RMM:   4    -0.242374109867E+03    0.36677E-04   -0.50615E-04  3137   0.420E-02
  78 F= -.24237411E+03 E0= -.24237229E+03  d E =-.727587E-02
       N       E                     dE             d eps       ncg     rms          rms(c)
DAV:   1    -0.242373369373E+03    0.77717E-03   -0.21882E+00  4760   0.251E+00    0.279E-01
RMM:   2    -0.242374022432E+03   -0.65306E-03   -0.27269E-02  4699   0.269E-01    0.342E-02
RMM:   3    -0.242374082373E+03   -0.59941E-04   -0.10929E-03  3585   0.789E-02    0.209E-02
RMM:   4    -0.242374087301E+03   -0.49280E-05   -0.21872E-04  2799   0.317E-02
  79 F= -.24237409E+03 E0= -.24237226E+03  d E =-.730425E-02
       N       E                     dE             d eps       ncg     rms          rms(c)
DAV:   1    -0.242375925720E+03   -0.18433E-02   -0.67245E-01  4766   0.139E+00    0.198E-01
RMM:   2    -0.242376095026E+03   -0.16931E-03   -0.11721E-02  4479   0.172E-01    0.930E-02
RMM:   3    -0.242375999330E+03    0.95696E-04   -0.88204E-04  3380   0.576E-02
  80 F= -.24237600E+03 E0= -.24237420E+03  d E =-.721121E-02
       N       E                     dE             d eps       ncg     rms          rms(c)
DAV:   1    -0.242376708731E+03   -0.61371E-03   -0.36488E-01  4890   0.893E-01    0.264E-01
RMM:   2    -0.242376062189E+03    0.64654E-03   -0.10956E-02  4511   0.162E-01    0.495E-02
RMM:   3    -0.242376059819E+03    0.23697E-05   -0.55278E-04  3127   0.525E-02
  81 F= -.24237606E+03 E0= -.24237422E+03  d E =-.736876E-02
       N       E                     dE             d eps       ncg     rms          rms(c)
DAV:   1    -0.242378560605E+03   -0.24984E-02   -0.17871E-01  4960   0.619E-01    0.182E-01
RMM:   2    -0.242378156191E+03    0.40441E-03   -0.46041E-03  4073   0.107E-01    0.620E-02
RMM:   3    -0.242378198198E+03   -0.42007E-04   -0.28857E-04  2907   0.378E-02
  82 F= -.24237820E+03 E0= -.24237637E+03  d E =-.732397E-02
       N       E                     dE             d eps       ncg     rms          rms(c)
DAV:   1    -0.242378350376E+03   -0.19418E-03   -0.33125E-01  4760   0.839E-01    0.168E-01
RMM:   2    -0.242378415765E+03   -0.65389E-04   -0.36179E-03  4096   0.982E-02    0.275E-02
RMM:   3    -0.242378490509E+03   -0.74744E-04   -0.20015E-04  2850   0.351E-02
  83 F= -.24237849E+03 E0= -.24237667E+03  d E =-.729367E-02
       N       E                     dE             d eps       ncg     rms          rms(c)
DAV:   1    -0.242377952900E+03    0.46286E-03   -0.16264E-01  4922   0.589E-01    0.112E-01
RMM:   2    -0.242378098432E+03   -0.14553E-03   -0.13882E-03  3308   0.591E-02    0.646E-02
RMM:   3    -0.242378086464E+03    0.11968E-04   -0.16580E-04  2779   0.297E-02
  84 F= -.24237809E+03 E0= -.24237629E+03  d E =-.720361E-02
       N       E                     dE             d eps       ncg     rms          rms(c)
DAV:   1    -0.242378529986E+03   -0.43155E-03   -0.32435E-01  4830   0.832E-01    0.167E-01
RMM:   2    -0.242378699327E+03   -0.16934E-03   -0.32601E-03  3804   0.903E-02    0.201E-02
RMM:   3    -0.242378708754E+03   -0.94264E-05   -0.14965E-04  2720   0.330E-02
  85 F= -.24237871E+03 E0= -.24237688E+03  d E =-.732692E-02
       N       E                     dE             d eps       ncg     rms          rms(c)
DAV:   1    -0.242378384843E+03    0.31448E-03   -0.16503E-01  4792   0.616E-01    0.121E-01
RMM:   2    -0.242378467317E+03   -0.82473E-04   -0.17017E-03  3430   0.653E-02    0.646E-02
RMM:   3    -0.242378463719E+03    0.35976E-05   -0.18753E-04  2805   0.283E-02
  86 F= -.24237846E+03 E0= -.24237665E+03  d E =-.725051E-02
       N       E                     dE             d eps       ncg     rms          rms(c)
DAV:   1    -0.242378314376E+03    0.15294E-03   -0.32802E-01  4760   0.834E-01    0.162E-01
RMM:   2    -0.242378516213E+03   -0.20184E-03   -0.29576E-03  3695   0.865E-02    0.211E-02
RMM:   3    -0.242378544172E+03   -0.27959E-04   -0.14323E-04  2741   0.311E-02
  87 F= -.24237854E+03 E0= -.24237672E+03  d E =-.731490E-02
       N       E                     dE             d eps       ncg     rms          rms(c)
DAV:   1    -0.242375994773E+03    0.25214E-02   -0.17723E-01  4828   0.623E-01    0.175E-01
RMM:   2    -0.242375827664E+03    0.16711E-03   -0.34430E-03  3774   0.963E-02    0.104E-01
RMM:   3    -0.242375624753E+03    0.20291E-03   -0.39024E-04  3008   0.398E-02    0.660E-02
RMM:   4    -0.242375616836E+03    0.79170E-05   -0.41071E-04  3050   0.337E-02
  88 F= -.24237562E+03 E0= -.24237378E+03  d E =-.733725E-02
       N       E                     dE             d eps       ncg     rms          rms(c)
DAV:   1    -0.242376768107E+03   -0.11434E-02   -0.36383E-01  4784   0.890E-01    0.277E-01
RMM:   2    -0.242375762655E+03    0.10055E-02   -0.11920E-02  4455   0.161E-01    0.308E-02
RMM:   3    -0.242375810068E+03   -0.47413E-04   -0.58199E-04  3121   0.533E-02
  89 F= -.24237581E+03 E0= -.24237400E+03  d E =-.724873E-02
       N       E                     dE             d eps       ncg     rms          rms(c)
DAV:   1    -0.242378761295E+03   -0.29986E-02   -0.17486E-01  4936   0.623E-01    0.175E-01
RMM:   2    -0.242378394301E+03    0.36699E-03   -0.38994E-03  3846   0.958E-02    0.676E-02
RMM:   3    -0.242378415219E+03   -0.20918E-04   -0.23601E-04  2839   0.358E-02
  90 F= -.24237842E+03 E0= -.24237658E+03  d E =-.735843E-02
       N       E                     dE             d eps       ncg     rms          rms(c)
DAV:   1    -0.242378291646E+03    0.10266E-03   -0.32579E-01  4760   0.838E-01    0.160E-01
RMM:   2    -0.242378508276E+03   -0.21663E-03   -0.30827E-03  3695   0.893E-02    0.266E-02
RMM:   3    -0.242378525275E+03   -0.16999E-04   -0.15342E-04  2728   0.319E-02
  91 F= -.24237853E+03 E0= -.24237671E+03  d E =-.726816E-02
       N       E                     dE             d eps       ncg     rms          rms(c)
DAV:   1    -0.242379064108E+03   -0.55583E-03   -0.16377E-01  4796   0.642E-01    0.116E-01
RMM:   2    -0.242379157429E+03   -0.93321E-04   -0.14887E-03  3396   0.641E-02    0.648E-02
RMM:   3    -0.242379159873E+03   -0.24445E-05   -0.16275E-04  2790   0.287E-02
  92 F= -.24237916E+03 E0= -.24237736E+03  d E =-.719531E-02
       N       E                     dE             d eps       ncg     rms          rms(c)
DAV:   1    -0.242377644705E+03    0.15127E-02   -0.32445E-01  4760   0.855E-01    0.158E-01
RMM:   2    -0.242377912813E+03   -0.26811E-03   -0.28587E-03  3972   0.891E-02    0.251E-02
RMM:   3    -0.242377927259E+03   -0.14446E-04   -0.15154E-04  2741   0.312E-02
  93 F= -.24237793E+03 E0= -.24237610E+03  d E =-.730512E-02
       N       E                     dE             d eps       ncg     rms          rms(c)
DAV:   1    -0.242378313126E+03   -0.40031E-03   -0.16265E-01  4804   0.609E-01    0.111E-01
RMM:   2    -0.242378434209E+03   -0.12108E-03   -0.13704E-03  3485   0.620E-02    0.674E-02
RMM:   3    -0.242378445807E+03   -0.11598E-04   -0.18207E-04  2826   0.317E-02
  94 F= -.24237845E+03 E0= -.24237660E+03  d E =-.737077E-02
       N       E                     dE             d eps       ncg     rms          rms(c)
DAV:   1    -0.242378354287E+03    0.79923E-04   -0.32528E-01  4806   0.861E-01    0.160E-01
RMM:   2    -0.242378603460E+03   -0.24917E-03   -0.28556E-03  3929   0.885E-02    0.284E-02
RMM:   3    -0.242378599848E+03    0.36121E-05   -0.14877E-04  2745   0.311E-02
  95 F= -.24237860E+03 E0= -.24237677E+03  d E =-.731861E-02
       N       E                     dE             d eps       ncg     rms          rms(c)
DAV:   1    -0.242376455393E+03    0.21481E-02   -0.17277E-01  4874   0.627E-01    0.173E-01
RMM:   2    -0.242376329439E+03    0.12595E-03   -0.35438E-03  3997   0.966E-02    0.988E-02
RMM:   3    -0.242376115392E+03    0.21405E-03   -0.68840E-04  3193   0.437E-02    0.451E-02
RMM:   4    -0.242376095046E+03    0.20346E-04   -0.26760E-04  2912   0.305E-02
  96 F= -.24237610E+03 E0= -.24237425E+03  d E =-.736765E-02
       N       E                     dE             d eps       ncg     rms          rms(c)
DAV:   1    -0.242376383648E+03   -0.26826E-03   -0.36194E-01  4870   0.914E-01    0.274E-01
RMM:   2    -0.242375543530E+03    0.84012E-03   -0.12425E-02  4598   0.165E-01    0.276E-02
RMM:   3    -0.242375585638E+03   -0.42108E-04   -0.60101E-04  3204   0.504E-02
  97 F= -.24237559E+03 E0= -.24237376E+03  d E =-.729353E-02
